# LAMMPS data file for GO/PEEK/iC system
# Generated by Python script

20441 atoms
25220 bonds
24958 angles
0 dihedrals
0 impropers

7 atom types
4 bond types
3 angle types
0 dihedral types
0 improper types

0.0 200.0 xlo xhi
0.0 200.0 ylo yhi
0.0 300.0 zlo zhi

Masses

1 76.09   # Ether-linked phenyl bead (PEEK)
2 90.08   # Ketone-linked phenyl bead (PEEK)
3 60.05   # GO carbon bead
4 76.05   # GO oxygen-containing group bead
5 162.14  # 3-linked b-D-galactopyranose bead (iC)
6 242.20  # 4-linked a-D-galactopyranose with sulfate bead (iC)
7 76.05   # Reactive site bead

Atoms  # full atom style: atom-ID molecule-ID atom-type q x y z

1 1 1 0.0 15.115 37.909 143.716
2 1 2 0.0 14.350 39.234 143.716
3 1 1 0.0 15.880 39.234 143.716
4 1 1 0.0 15.355 38.219 143.425
5 1 2 0.0 14.590 39.544 143.425
6 1 1 0.0 16.120 39.544 143.425
7 1 1 0.0 15.738 37.752 143.189
8 1 2 0.0 14.973 39.077 143.189
9 1 1 0.0 16.503 39.077 143.189
10 1 1 0.0 15.938 38.057 143.479
11 1 2 0.0 15.173 39.382 143.479
12 1 1 0.0 16.703 39.382 143.479
13 1 1 0.0 15.613 37.579 143.440
14 1 2 0.0 14.848 38.904 143.440
15 1 1 0.0 16.378 38.904 143.440
16 1 1 0.0 15.614 37.989 143.614
17 1 2 0.0 14.849 39.314 143.614
18 1 1 0.0 16.379 39.314 143.614
19 1 1 0.0 15.985 38.465 143.975
20 1 2 0.0 15.220 39.790 143.975
21 1 1 0.0 16.750 39.790 143.975
22 1 1 0.0 16.482 38.598 144.241
23 1 2 0.0 15.717 39.923 144.241
24 1 1 0.0 17.247 39.923 144.241
25 1 1 0.0 16.345 38.760 144.418
26 1 2 0.0 15.580 40.085 144.418
27 1 1 0.0 17.110 40.085 144.418
28 1 1 0.0 16.663 38.429 144.163
29 1 2 0.0 15.898 39.754 144.163
30 1 1 0.0 17.428 39.754 144.163
31 1 1 0.0 16.439 38.643 143.703
32 1 2 0.0 15.674 39.968 143.703
33 1 1 0.0 17.204 39.968 143.703
34 1 1 0.0 16.420 38.166 144.001
35 1 2 0.0 15.655 39.491 144.001
36 1 1 0.0 17.185 39.491 144.001
37 1 1 0.0 16.302 38.406 144.461
38 1 2 0.0 15.537 39.731 144.461
39 1 1 0.0 17.067 39.731 144.461
40 1 1 0.0 16.191 38.648 144.805
41 1 2 0.0 15.426 39.973 144.805
42 1 1 0.0 16.956 39.973 144.805
43 1 1 0.0 15.979 39.071 144.464
44 1 2 0.0 15.214 40.396 144.464
45 1 1 0.0 16.744 40.396 144.464
46 1 1 0.0 16.209 38.817 144.892
47 1 2 0.0 15.444 40.142 144.892
48 1 1 0.0 16.974 40.142 144.892
49 1 1 0.0 16.552 38.592 144.818
50 1 2 0.0 15.787 39.917 144.818
51 1 1 0.0 17.317 39.917 144.818
52 1 1 0.0 16.655 38.392 144.492
53 1 2 0.0 15.890 39.717 144.492
54 1 1 0.0 17.420 39.717 144.492
55 1 1 0.0 16.843 38.554 144.823
56 1 2 0.0 16.078 39.879 144.823
57 1 1 0.0 17.608 39.879 144.823
58 1 1 0.0 17.280 38.727 144.732
59 1 2 0.0 16.515 40.052 144.732
60 1 1 0.0 18.045 40.052 144.732
61 1 1 0.0 17.308 38.445 145.012
62 1 2 0.0 16.543 39.770 145.012
63 1 1 0.0 18.073 39.770 145.012
64 1 1 0.0 17.475 38.825 144.951
65 1 2 0.0 16.710 40.150 144.951
66 1 1 0.0 18.240 40.150 144.951
67 1 1 0.0 16.987 39.159 144.936
68 1 2 0.0 16.222 40.484 144.936
69 1 1 0.0 17.752 40.484 144.936
70 1 1 0.0 17.253 39.123 144.579
71 1 2 0.0 16.488 40.448 144.579
72 1 1 0.0 18.018 40.448 144.579
73 1 1 0.0 17.500 38.655 144.177
74 1 2 0.0 16.735 39.980 144.177
75 1 1 0.0 18.265 39.980 144.177
76 1 1 0.0 17.797 38.469 144.464
77 1 2 0.0 17.032 39.794 144.464
78 1 1 0.0 18.562 39.794 144.464
79 1 1 0.0 17.367 38.467 144.713
80 1 2 0.0 16.602 39.792 144.713
81 1 1 0.0 18.132 39.792 144.713
82 1 1 0.0 17.340 38.777 144.348
83 1 2 0.0 16.575 40.102 144.348
84 1 1 0.0 18.105 40.102 144.348
85 1 1 0.0 17.723 38.895 144.372
86 1 2 0.0 16.958 40.220 144.372
87 1 1 0.0 18.488 40.220 144.372
88 1 1 0.0 17.370 38.510 144.285
89 1 2 0.0 16.605 39.835 144.285
90 1 1 0.0 18.135 39.835 144.285
91 1 1 0.0 17.147 38.507 144.685
92 1 2 0.0 16.382 39.832 144.685
93 1 1 0.0 17.912 39.832 144.685
94 1 1 0.0 17.153 38.637 144.900
95 1 2 0.0 16.388 39.962 144.900
96 1 1 0.0 17.918 39.962 144.900
97 1 1 0.0 16.953 39.059 145.243
98 1 2 0.0 16.188 40.384 145.243
99 1 1 0.0 17.718 40.384 145.243
100 1 1 0.0 16.780 38.579 144.868
101 1 2 0.0 16.015 39.904 144.868
102 1 1 0.0 17.545 39.904 144.868
103 1 1 0.0 16.913 38.887 145.291
104 1 2 0.0 16.148 40.212 145.291
105 1 1 0.0 17.678 40.212 145.291
106 1 1 0.0 17.153 38.588 145.085
107 1 2 0.0 16.388 39.913 145.085
108 1 1 0.0 17.918 39.913 145.085
109 1 1 0.0 16.955 38.721 144.973
110 1 2 0.0 16.190 40.046 144.973
111 1 1 0.0 17.720 40.046 144.973
112 1 1 0.0 16.859 38.669 145.370
113 1 2 0.0 16.094 39.994 145.370
114 1 1 0.0 17.624 39.994 145.370
115 1 1 0.0 16.905 38.309 145.153
116 1 2 0.0 16.140 39.634 145.153
117 1 1 0.0 17.670 39.634 145.153
118 1 1 0.0 17.385 38.742 144.814
119 1 2 0.0 16.620 40.067 144.814
120 1 1 0.0 18.150 40.067 144.814
121 1 1 0.0 16.957 39.226 145.048
122 1 2 0.0 16.192 40.551 145.048
123 1 1 0.0 17.722 40.551 145.048
124 1 1 0.0 17.150 39.237 144.939
125 1 2 0.0 16.385 40.562 144.939
126 1 1 0.0 17.915 40.562 144.939
127 1 1 0.0 16.823 39.492 144.618
128 1 2 0.0 16.058 40.817 144.618
129 1 1 0.0 17.588 40.817 144.618
130 1 1 0.0 16.369 39.268 144.901
131 1 2 0.0 15.604 40.593 144.901
132 1 1 0.0 17.134 40.593 144.901
133 1 1 0.0 16.795 39.143 145.370
134 1 2 0.0 16.030 40.468 145.370
135 1 1 0.0 17.560 40.468 145.370
136 1 1 0.0 16.692 39.070 145.323
137 1 2 0.0 15.927 40.395 145.323
138 1 1 0.0 17.457 40.395 145.323
139 1 1 0.0 16.433 39.405 145.348
140 1 2 0.0 15.668 40.730 145.348
141 1 1 0.0 17.198 40.730 145.348
142 1 1 0.0 16.895 39.301 145.194
143 1 2 0.0 16.130 40.626 145.194
144 1 1 0.0 17.660 40.626 145.194
145 1 1 0.0 17.075 39.350 145.619
146 1 2 0.0 16.310 40.675 145.619
147 1 1 0.0 17.840 40.675 145.619
148 1 1 0.0 17.391 38.946 146.095
149 1 2 0.0 16.626 40.271 146.095
150 1 1 0.0 18.156 40.271 146.095
151 2 1 0.0 74.743 75.273 41.966
152 2 2 0.0 73.978 76.598 41.966
153 2 1 0.0 75.508 76.598 41.966
154 2 1 0.0 74.338 75.366 42.082
155 2 2 0.0 73.573 76.691 42.082
156 2 1 0.0 75.103 76.691 42.082
157 2 1 0.0 74.054 75.581 42.206
158 2 2 0.0 73.289 76.906 42.206
159 2 1 0.0 74.819 76.906 42.206
160 2 1 0.0 73.829 76.044 42.452
161 2 2 0.0 73.064 77.369 42.452
162 2 1 0.0 74.594 77.369 42.452
163 2 1 0.0 73.718 76.245 41.968
164 2 2 0.0 72.953 77.570 41.968
165 2 1 0.0 74.483 77.570 41.968
166 2 1 0.0 74.001 75.867 41.963
167 2 2 0.0 73.236 77.192 41.963
168 2 1 0.0 74.766 77.192 41.963
169 2 1 0.0 73.786 75.739 42.215
170 2 2 0.0 73.021 77.065 42.215
171 2 1 0.0 74.551 77.065 42.215
172 2 1 0.0 73.599 75.923 42.038
173 2 2 0.0 72.834 77.248 42.038
174 2 1 0.0 74.364 77.248 42.038
175 2 1 0.0 73.177 75.989 41.826
176 2 2 0.0 72.412 77.314 41.826
177 2 1 0.0 73.942 77.314 41.826
178 2 1 0.0 73.572 75.927 41.446
179 2 2 0.0 72.807 77.252 41.446
180 2 1 0.0 74.337 77.252 41.446
181 2 1 0.0 73.778 76.144 41.267
182 2 2 0.0 73.013 77.469 41.267
183 2 1 0.0 74.543 77.469 41.267
184 2 1 0.0 73.590 75.658 41.099
185 2 2 0.0 72.825 76.983 41.099
186 2 1 0.0 74.355 76.983 41.099
187 2 1 0.0 73.830 76.128 40.888
188 2 2 0.0 73.065 77.453 40.888
189 2 1 0.0 74.595 77.453 40.888
190 2 1 0.0 73.438 75.834 40.429
191 2 2 0.0 72.673 77.159 40.429
192 2 1 0.0 74.203 77.159 40.429
193 2 1 0.0 73.423 76.075 40.816
194 2 2 0.0 72.658 77.400 40.816
195 2 1 0.0 74.188 77.400 40.816
196 2 1 0.0 73.397 75.925 40.528
197 2 2 0.0 72.632 77.250 40.528
198 2 1 0.0 74.162 77.250 40.528
199 2 1 0.0 73.594 75.658 40.946
200 2 2 0.0 72.829 76.983 40.946
201 2 1 0.0 74.359 76.983 40.946
202 2 1 0.0 73.416 75.688 40.952
203 2 2 0.0 72.651 77.013 40.952
204 2 1 0.0 74.181 77.013 40.952
205 2 1 0.0 73.875 75.756 40.754
206 2 2 0.0 73.110 77.081 40.754
207 2 1 0.0 74.640 77.081 40.754
208 2 1 0.0 74.096 75.340 40.285
209 2 2 0.0 73.331 76.665 40.285
210 2 1 0.0 74.861 76.665 40.285
211 2 1 0.0 74.192 75.605 39.912
212 2 2 0.0 73.427 76.930 39.912
213 2 1 0.0 74.957 76.930 39.912
214 2 1 0.0 74.243 75.549 40.006
215 2 2 0.0 73.478 76.874 40.006
216 2 1 0.0 75.008 76.874 40.006
217 2 1 0.0 73.882 75.881 39.741
218 2 2 0.0 73.117 77.206 39.741
219 2 1 0.0 74.647 77.206 39.741
220 2 1 0.0 74.133 75.867 39.592
221 2 2 0.0 73.368 77.192 39.592
222 2 1 0.0 74.898 77.192 39.592
223 2 1 0.0 74.360 76.039 39.883
224 2 2 0.0 73.595 77.364 39.883
225 2 1 0.0 75.125 77.364 39.883
226 2 1 0.0 74.103 75.553 40.001
227 2 2 0.0 73.338 76.878 40.001
228 2 1 0.0 74.868 76.878 40.001
229 2 1 0.0 74.186 75.901 40.111
230 2 2 0.0 73.421 77.226 40.111
231 2 1 0.0 74.951 77.226 40.111
232 2 1 0.0 73.943 75.880 40.241
233 2 2 0.0 73.178 77.205 40.241
234 2 1 0.0 74.708 77.205 40.241
235 2 1 0.0 73.563 76.035 39.792
236 2 2 0.0 72.798 77.360 39.792
237 2 1 0.0 74.328 77.360 39.792
238 2 1 0.0 73.083 75.790 40.046
239 2 2 0.0 72.318 77.115 40.046
240 2 1 0.0 73.848 77.115 40.046
241 2 1 0.0 73.488 75.571 40.275
242 2 2 0.0 72.723 76.896 40.275
243 2 1 0.0 74.253 76.896 40.275
244 2 1 0.0 73.418 75.532 40.083
245 2 2 0.0 72.653 76.857 40.083
246 2 1 0.0 74.183 76.857 40.083
247 2 1 0.0 73.010 75.539 40.178
248 2 2 0.0 72.245 76.864 40.178
249 2 1 0.0 73.775 76.864 40.178
250 2 1 0.0 72.928 75.359 39.795
251 2 2 0.0 72.163 76.684 39.795
252 2 1 0.0 73.693 76.684 39.795
253 2 1 0.0 73.084 74.965 39.516
254 2 2 0.0 72.319 76.290 39.516
255 2 1 0.0 73.849 76.290 39.516
256 2 1 0.0 73.415 74.649 39.464
257 2 2 0.0 72.650 75.974 39.464
258 2 1 0.0 74.180 75.974 39.464
259 2 1 0.0 73.356 74.300 39.356
260 2 2 0.0 72.591 75.625 39.356
261 2 1 0.0 74.121 75.625 39.356
262 2 1 0.0 73.660 74.310 39.131
263 2 2 0.0 72.895 75.635 39.131
264 2 1 0.0 74.425 75.635 39.131
265 2 1 0.0 73.176 74.018 38.700
266 2 2 0.0 72.411 75.343 38.700
267 2 1 0.0 73.941 75.343 38.700
268 2 1 0.0 73.349 73.657 38.890
269 2 2 0.0 72.584 74.982 38.890
270 2 1 0.0 74.114 74.982 38.890
271 2 1 0.0 73.503 73.779 38.711
272 2 2 0.0 72.738 75.104 38.711
273 2 1 0.0 74.268 75.104 38.711
274 2 1 0.0 73.173 74.062 38.525
275 2 2 0.0 72.408 75.387 38.525
276 2 1 0.0 73.938 75.387 38.525
277 2 1 0.0 73.583 73.809 38.703
278 2 2 0.0 72.818 75.134 38.703
279 2 1 0.0 74.348 75.134 38.703
280 2 1 0.0 73.378 74.198 38.511
281 2 2 0.0 72.613 75.523 38.511
282 2 1 0.0 74.143 75.523 38.511
283 2 1 0.0 72.947 74.201 38.686
284 2 2 0.0 72.182 75.526 38.686
285 2 1 0.0 73.712 75.526 38.686
286 2 1 0.0 72.996 74.501 38.188
287 2 2 0.0 72.231 75.826 38.188
288 2 1 0.0 73.761 75.826 38.188
289 2 1 0.0 73.328 74.766 38.361
290 2 2 0.0 72.563 76.091 38.361
291 2 1 0.0 74.093 76.091 38.361
292 2 1 0.0 73.802 74.833 38.413
293 2 2 0.0 73.037 76.158 38.413
294 2 1 0.0 74.567 76.158 38.413
295 2 1 0.0 73.735 74.880 38.071
296 2 2 0.0 72.970 76.205 38.071
297 2 1 0.0 74.500 76.205 38.071
298 2 1 0.0 73.669 74.858 37.660
299 2 2 0.0 72.904 76.183 37.660
300 2 1 0.0 74.434 76.183 37.660
301 3 1 0.0 87.588 41.989 70.165
302 3 2 0.0 86.823 43.314 70.165
303 3 1 0.0 88.353 43.314 70.165
304 3 1 0.0 87.541 41.770 70.518
305 3 2 0.0 86.776 43.095 70.518
306 3 1 0.0 88.306 43.095 70.518
307 3 1 0.0 87.338 42.243 70.890
308 3 2 0.0 86.573 43.568 70.890
309 3 1 0.0 88.103 43.568 70.890
310 3 1 0.0 87.200 41.744 70.609
311 3 2 0.0 86.435 43.069 70.609
312 3 1 0.0 87.965 43.069 70.609
313 3 1 0.0 87.315 42.019 70.566
314 3 2 0.0 86.550 43.344 70.566
315 3 1 0.0 88.080 43.344 70.566
316 3 1 0.0 87.514 41.616 70.966
317 3 2 0.0 86.749 42.941 70.966
318 3 1 0.0 88.279 42.941 70.966
319 3 1 0.0 87.221 41.642 71.010
320 3 2 0.0 86.456 42.967 71.010
321 3 1 0.0 87.986 42.967 71.010
322 3 1 0.0 87.112 41.599 70.736
323 3 2 0.0 86.347 42.924 70.736
324 3 1 0.0 87.877 42.924 70.736
325 3 1 0.0 87.298 41.110 70.589
326 3 2 0.0 86.533 42.435 70.589
327 3 1 0.0 88.063 42.435 70.589
328 3 1 0.0 86.964 40.780 70.966
329 3 2 0.0 86.199 42.105 70.966
330 3 1 0.0 87.729 42.105 70.966
331 3 1 0.0 87.274 40.500 70.909
332 3 2 0.0 86.509 41.825 70.909
333 3 1 0.0 88.039 41.825 70.909
334 3 1 0.0 87.689 40.141 70.766
335 3 2 0.0 86.924 41.466 70.766
336 3 1 0.0 88.454 41.466 70.766
337 3 1 0.0 87.829 40.547 70.383
338 3 2 0.0 87.064 41.872 70.383
339 3 1 0.0 88.594 41.872 70.383
340 3 1 0.0 88.115 40.573 70.667
341 3 2 0.0 87.350 41.898 70.667
342 3 1 0.0 88.880 41.898 70.667
343 3 1 0.0 88.198 40.516 70.261
344 3 2 0.0 87.433 41.841 70.261
345 3 1 0.0 88.963 41.841 70.261
346 3 1 0.0 87.749 40.788 70.000
347 3 2 0.0 86.984 42.113 70.000
348 3 1 0.0 88.514 42.113 70.000
349 3 1 0.0 87.355 40.378 70.321
350 3 2 0.0 86.590 41.703 70.321
351 3 1 0.0 88.120 41.703 70.321
352 3 1 0.0 87.669 40.152 70.472
353 3 2 0.0 86.904 41.477 70.472
354 3 1 0.0 88.434 41.477 70.472
355 3 1 0.0 88.099 40.420 70.096
356 3 2 0.0 87.334 41.745 70.096
357 3 1 0.0 88.864 41.745 70.096
358 3 1 0.0 88.108 40.127 70.109
359 3 2 0.0 87.343 41.453 70.109
360 3 1 0.0 88.873 41.453 70.109
361 3 1 0.0 88.427 40.020 69.966
362 3 2 0.0 87.662 41.345 69.966
363 3 1 0.0 89.192 41.345 69.966
364 3 1 0.0 88.121 40.238 69.740
365 3 2 0.0 87.356 41.563 69.740
366 3 1 0.0 88.886 41.563 69.740
367 3 1 0.0 88.144 39.758 69.641
368 3 2 0.0 87.379 41.083 69.641
369 3 1 0.0 88.909 41.083 69.641
370 3 1 0.0 88.621 39.843 69.966
371 3 2 0.0 87.856 41.168 69.966
372 3 1 0.0 89.386 41.168 69.966
373 3 1 0.0 88.573 39.789 69.713
374 3 2 0.0 87.808 41.114 69.713
375 3 1 0.0 89.338 41.114 69.713
376 3 1 0.0 88.618 39.378 69.647
377 3 2 0.0 87.853 40.703 69.647
378 3 1 0.0 89.383 40.703 69.647
379 3 1 0.0 88.853 39.654 69.204
380 3 2 0.0 88.088 40.979 69.204
381 3 1 0.0 89.618 40.979 69.204
382 3 1 0.0 88.927 39.433 69.452
383 3 2 0.0 88.162 40.758 69.452
384 3 1 0.0 89.692 40.758 69.452
385 3 1 0.0 88.472 39.394 69.171
386 3 2 0.0 87.707 40.719 69.171
387 3 1 0.0 89.237 40.719 69.171
388 3 1 0.0 88.597 38.948 69.179
389 3 2 0.0 87.832 40.273 69.179
390 3 1 0.0 89.362 40.273 69.179
391 3 1 0.0 88.932 38.467 69.546
392 3 2 0.0 88.167 39.792 69.546
393 3 1 0.0 89.697 39.792 69.546
394 3 1 0.0 89.245 38.606 69.930
395 3 2 0.0 88.480 39.931 69.930
396 3 1 0.0 90.010 39.931 69.930
397 3 1 0.0 88.816 38.953 70.196
398 3 2 0.0 88.051 40.278 70.196
399 3 1 0.0 89.581 40.278 70.196
400 3 1 0.0 88.403 39.254 70.068
401 3 2 0.0 87.638 40.579 70.068
402 3 1 0.0 89.168 40.579 70.068
403 3 1 0.0 88.510 39.515 70.011
404 3 2 0.0 87.745 40.840 70.011
405 3 1 0.0 89.275 40.840 70.011
406 3 1 0.0 88.468 39.473 70.483
407 3 2 0.0 87.703 40.798 70.483
408 3 1 0.0 89.233 40.798 70.483
409 3 1 0.0 88.292 39.867 70.823
410 3 2 0.0 87.527 41.192 70.823
411 3 1 0.0 89.057 41.192 70.823
412 3 1 0.0 88.375 39.721 71.039
413 3 2 0.0 87.610 41.046 71.039
414 3 1 0.0 89.140 41.046 71.039
415 3 1 0.0 88.304 39.660 70.812
416 3 2 0.0 87.539 40.985 70.812
417 3 1 0.0 89.069 40.985 70.812
418 3 1 0.0 87.863 39.627 70.424
419 3 2 0.0 87.098 40.952 70.424
420 3 1 0.0 88.628 40.952 70.424
421 3 1 0.0 87.523 39.481 70.268
422 3 2 0.0 86.758 40.806 70.268
423 3 1 0.0 88.288 40.806 70.268
424 3 1 0.0 87.631 39.068 70.349
425 3 2 0.0 86.866 40.393 70.349
426 3 1 0.0 88.396 40.393 70.349
427 3 1 0.0 87.899 39.091 70.479
428 3 2 0.0 87.134 40.416 70.479
429 3 1 0.0 88.664 40.416 70.479
430 3 1 0.0 87.672 39.473 70.180
431 3 2 0.0 86.907 40.798 70.180
432 3 1 0.0 88.437 40.798 70.180
433 3 1 0.0 87.277 39.939 70.460
434 3 2 0.0 86.512 41.264 70.460
435 3 1 0.0 88.042 41.264 70.460
436 3 1 0.0 87.036 39.459 70.437
437 3 2 0.0 86.271 40.784 70.437
438 3 1 0.0 87.801 40.784 70.437
439 3 1 0.0 86.821 39.087 69.957
440 3 2 0.0 86.056 40.412 69.957
441 3 1 0.0 87.586 40.412 69.957
442 3 1 0.0 86.450 38.801 69.801
443 3 2 0.0 85.685 40.126 69.801
444 3 1 0.0 87.215 40.126 69.801
445 3 1 0.0 86.882 38.637 70.296
446 3 2 0.0 86.117 39.962 70.296
447 3 1 0.0 87.647 39.962 70.296
448 3 1 0.0 87.029 38.518 70.363
449 3 2 0.0 86.264 39.843 70.363
450 3 1 0.0 87.794 39.843 70.363
451 4 1 0.0 116.627 87.089 65.013
452 4 2 0.0 115.862 88.414 65.013
453 4 1 0.0 117.392 88.414 65.013
454 4 1 0.0 116.539 87.201 65.192
455 4 2 0.0 115.774 88.526 65.192
456 4 1 0.0 117.304 88.526 65.192
457 4 1 0.0 116.136 86.703 64.710
458 4 2 0.0 115.371 88.028 64.710
459 4 1 0.0 116.901 88.028 64.710
460 4 1 0.0 116.327 86.489 64.781
461 4 2 0.0 115.562 87.814 64.781
462 4 1 0.0 117.092 87.814 64.781
463 4 1 0.0 116.034 86.828 64.716
464 4 2 0.0 115.269 88.153 64.716
465 4 1 0.0 116.799 88.153 64.716
466 4 1 0.0 115.844 86.331 65.154
467 4 2 0.0 115.079 87.656 65.154
468 4 1 0.0 116.609 87.656 65.154
469 4 1 0.0 116.010 86.248 65.042
470 4 2 0.0 115.245 87.573 65.042
471 4 1 0.0 116.775 87.573 65.042
472 4 1 0.0 115.699 86.324 65.224
473 4 2 0.0 114.934 87.649 65.224
474 4 1 0.0 116.464 87.649 65.224
475 4 1 0.0 115.906 86.809 65.221
476 4 2 0.0 115.141 88.134 65.221
477 4 1 0.0 116.671 88.134 65.221
478 4 1 0.0 116.392 86.748 65.171
479 4 2 0.0 115.627 88.073 65.171
480 4 1 0.0 117.157 88.073 65.171
481 4 1 0.0 116.745 86.279 65.363
482 4 2 0.0 115.980 87.604 65.363
483 4 1 0.0 117.510 87.604 65.363
484 4 1 0.0 117.172 86.484 64.908
485 4 2 0.0 116.407 87.809 64.908
486 4 1 0.0 117.937 87.809 64.908
487 4 1 0.0 116.866 86.958 64.493
488 4 2 0.0 116.101 88.283 64.493
489 4 1 0.0 117.631 88.283 64.493
490 4 1 0.0 116.850 86.601 64.635
491 4 2 0.0 116.085 87.926 64.635
492 4 1 0.0 117.615 87.926 64.635
493 4 1 0.0 117.139 86.938 64.192
494 4 2 0.0 116.374 88.263 64.192
495 4 1 0.0 117.904 88.263 64.192
496 4 1 0.0 117.600 86.748 64.293
497 4 2 0.0 116.835 88.073 64.293
498 4 1 0.0 118.365 88.073 64.293
499 4 1 0.0 118.007 86.745 64.151
500 4 2 0.0 117.242 88.070 64.151
501 4 1 0.0 118.772 88.070 64.151
502 4 1 0.0 117.555 86.375 63.724
503 4 2 0.0 116.790 87.700 63.724
504 4 1 0.0 118.320 87.700 63.724
505 4 1 0.0 117.359 86.173 63.776
506 4 2 0.0 116.594 87.498 63.776
507 4 1 0.0 118.124 87.498 63.776
508 4 1 0.0 117.080 86.047 63.681
509 4 2 0.0 116.315 87.372 63.681
510 4 1 0.0 117.845 87.372 63.681
511 4 1 0.0 116.758 86.349 64.174
512 4 2 0.0 115.993 87.674 64.174
513 4 1 0.0 117.523 87.674 64.174
514 4 1 0.0 117.240 86.562 63.732
515 4 2 0.0 116.475 87.887 63.732
516 4 1 0.0 118.005 87.887 63.732
517 4 1 0.0 117.564 86.146 63.950
518 4 2 0.0 116.799 87.471 63.950
519 4 1 0.0 118.329 87.471 63.950
520 4 1 0.0 117.923 86.498 63.630
521 4 2 0.0 117.158 87.823 63.630
522 4 1 0.0 118.688 87.823 63.630
523 4 1 0.0 118.037 86.667 63.177
524 4 2 0.0 117.272 87.992 63.177
525 4 1 0.0 118.802 87.992 63.177
526 4 1 0.0 118.055 86.251 62.692
527 4 2 0.0 117.290 87.576 62.692
528 4 1 0.0 118.820 87.576 62.692
529 4 1 0.0 117.857 86.122 62.507
530 4 2 0.0 117.092 87.448 62.507
531 4 1 0.0 118.622 87.448 62.507
532 4 1 0.0 118.125 85.819 62.186
533 4 2 0.0 117.360 87.144 62.186
534 4 1 0.0 118.890 87.144 62.186
535 4 1 0.0 118.600 86.227 62.153
536 4 2 0.0 117.835 87.552 62.153
537 4 1 0.0 119.365 87.552 62.153
538 4 1 0.0 119.000 85.974 61.731
539 4 2 0.0 118.235 87.299 61.731
540 4 1 0.0 119.765 87.299 61.731
541 4 1 0.0 118.835 86.405 61.949
542 4 2 0.0 118.070 87.730 61.949
543 4 1 0.0 119.600 87.730 61.949
544 4 1 0.0 119.207 86.817 62.111
545 4 2 0.0 118.442 88.142 62.111
546 4 1 0.0 119.972 88.142 62.111
547 4 1 0.0 119.225 87.057 62.173
548 4 2 0.0 118.460 88.382 62.173
549 4 1 0.0 119.990 88.382 62.173
550 4 1 0.0 118.870 86.564 62.371
551 4 2 0.0 118.105 87.889 62.371
552 4 1 0.0 119.635 87.889 62.371
553 4 1 0.0 119.207 86.099 62.057
554 4 2 0.0 118.442 87.424 62.057
555 4 1 0.0 119.972 87.424 62.057
556 4 1 0.0 118.883 86.063 62.223
557 4 2 0.0 118.118 87.388 62.223
558 4 1 0.0 119.648 87.388 62.223
559 4 1 0.0 119.301 86.549 62.146
560 4 2 0.0 118.536 87.874 62.146
561 4 1 0.0 120.066 87.874 62.146
562 4 1 0.0 119.441 86.481 62.346
563 4 2 0.0 118.676 87.806 62.346
564 4 1 0.0 120.206 87.806 62.346
565 4 1 0.0 119.469 86.246 62.473
566 4 2 0.0 118.704 87.571 62.473
567 4 1 0.0 120.234 87.571 62.473
568 4 1 0.0 119.282 86.693 62.848
569 4 2 0.0 118.517 88.018 62.848
570 4 1 0.0 120.047 88.018 62.848
571 4 1 0.0 119.152 87.009 62.578
572 4 2 0.0 118.387 88.334 62.578
573 4 1 0.0 119.917 88.334 62.578
574 4 1 0.0 119.383 86.813 62.627
575 4 2 0.0 118.618 88.138 62.627
576 4 1 0.0 120.148 88.138 62.627
577 4 1 0.0 119.234 87.007 62.980
578 4 2 0.0 118.469 88.332 62.980
579 4 1 0.0 119.999 88.332 62.980
580 4 1 0.0 118.912 87.260 63.331
581 4 2 0.0 118.147 88.585 63.331
582 4 1 0.0 119.677 88.585 63.331
583 4 1 0.0 119.405 86.888 62.901
584 4 2 0.0 118.640 88.213 62.901
585 4 1 0.0 120.170 88.213 62.901
586 4 1 0.0 119.650 87.228 62.829
587 4 2 0.0 118.885 88.553 62.829
588 4 1 0.0 120.415 88.553 62.829
589 4 1 0.0 119.394 86.873 63.166
590 4 2 0.0 118.629 88.198 63.166
591 4 1 0.0 120.159 88.198 63.166
592 4 1 0.0 119.133 87.267 62.948
593 4 2 0.0 118.368 88.592 62.948
594 4 1 0.0 119.898 88.592 62.948
595 4 1 0.0 119.089 86.992 62.782
596 4 2 0.0 118.324 88.317 62.782
597 4 1 0.0 119.854 88.317 62.782
598 4 1 0.0 119.098 86.955 62.910
599 4 2 0.0 118.333 88.280 62.910
600 4 1 0.0 119.863 88.280 62.910
601 5 1 0.0 69.182 64.674 285.517
602 5 2 0.0 68.417 65.999 285.517
603 5 1 0.0 69.947 65.999 285.517
604 5 1 0.0 69.607 65.109 285.066
605 5 2 0.0 68.842 66.434 285.066
606 5 1 0.0 70.372 66.434 285.066
607 5 1 0.0 69.314 64.842 285.107
608 5 2 0.0 68.549 66.167 285.107
609 5 1 0.0 70.079 66.167 285.107
610 5 1 0.0 69.365 65.260 284.969
611 5 2 0.0 68.600 66.585 284.969
612 5 1 0.0 70.130 66.585 284.969
613 5 1 0.0 69.315 64.960 284.776
614 5 2 0.0 68.550 66.285 284.776
615 5 1 0.0 70.080 66.285 284.776
616 5 1 0.0 69.422 65.000 284.748
617 5 2 0.0 68.657 66.325 284.748
618 5 1 0.0 70.187 66.325 284.748
619 5 1 0.0 69.085 64.790 284.398
620 5 2 0.0 68.320 66.115 284.398
621 5 1 0.0 69.850 66.115 284.398
622 5 1 0.0 69.459 65.001 283.998
623 5 2 0.0 68.694 66.326 283.998
624 5 1 0.0 70.224 66.326 283.998
625 5 1 0.0 69.407 65.259 284.079
626 5 2 0.0 68.642 66.584 284.079
627 5 1 0.0 70.172 66.584 284.079
628 5 1 0.0 69.774 65.088 284.284
629 5 2 0.0 69.009 66.413 284.284
630 5 1 0.0 70.539 66.413 284.284
631 5 1 0.0 69.707 65.371 283.986
632 5 2 0.0 68.942 66.696 283.986
633 5 1 0.0 70.472 66.696 283.986
634 5 1 0.0 69.423 65.306 284.188
635 5 2 0.0 68.658 66.631 284.188
636 5 1 0.0 70.188 66.631 284.188
637 5 1 0.0 69.629 64.923 284.659
638 5 2 0.0 68.864 66.248 284.659
639 5 1 0.0 70.394 66.248 284.659
640 5 1 0.0 69.224 65.298 285.004
641 5 2 0.0 68.459 66.623 285.004
642 5 1 0.0 69.989 66.623 285.004
643 5 1 0.0 69.591 65.691 284.724
644 5 2 0.0 68.826 67.016 284.724
645 5 1 0.0 70.356 67.016 284.724
646 5 1 0.0 69.758 66.162 284.520
647 5 2 0.0 68.993 67.487 284.520
648 5 1 0.0 70.523 67.487 284.520
649 5 1 0.0 70.103 66.373 284.812
650 5 2 0.0 69.338 67.698 284.812
651 5 1 0.0 70.868 67.698 284.812
652 5 1 0.0 70.285 66.319 285.126
653 5 2 0.0 69.520 67.644 285.126
654 5 1 0.0 71.050 67.644 285.126
655 5 1 0.0 70.285 65.996 285.493
656 5 2 0.0 69.520 67.321 285.493
657 5 1 0.0 71.050 67.321 285.493
658 5 1 0.0 70.603 65.871 285.342
659 5 2 0.0 69.838 67.196 285.342
660 5 1 0.0 71.368 67.196 285.342
661 5 1 0.0 70.286 66.111 285.023
662 5 2 0.0 69.521 67.436 285.023
663 5 1 0.0 71.051 67.436 285.023
664 5 1 0.0 70.116 65.623 285.023
665 5 2 0.0 69.351 66.948 285.023
666 5 1 0.0 70.881 66.948 285.023
667 5 1 0.0 70.294 65.204 284.679
668 5 2 0.0 69.529 66.529 284.679
669 5 1 0.0 71.059 66.529 284.679
670 5 1 0.0 70.446 64.983 284.325
671 5 2 0.0 69.681 66.308 284.325
672 5 1 0.0 71.211 66.308 284.325
673 5 1 0.0 70.707 65.370 284.608
674 5 2 0.0 69.942 66.695 284.608
675 5 1 0.0 71.472 66.695 284.608
676 5 1 0.0 70.227 65.707 284.853
677 5 2 0.0 69.462 67.032 284.853
678 5 1 0.0 70.992 67.032 284.853
679 5 1 0.0 69.858 65.547 284.770
680 5 2 0.0 69.093 66.872 284.770
681 5 1 0.0 70.623 66.872 284.770
682 5 1 0.0 69.973 65.668 284.489
683 5 2 0.0 69.208 66.993 284.489
684 5 1 0.0 70.738 66.993 284.489
685 5 1 0.0 69.788 66.138 284.806
686 5 2 0.0 69.023 67.463 284.806
687 5 1 0.0 70.553 67.463 284.806
688 5 1 0.0 69.357 65.982 285.097
689 5 2 0.0 68.592 67.308 285.097
690 5 1 0.0 70.122 67.308 285.097
691 5 1 0.0 69.198 66.073 285.060
692 5 2 0.0 68.433 67.398 285.060
693 5 1 0.0 69.963 67.398 285.060
694 5 1 0.0 69.664 66.302 284.943
695 5 2 0.0 68.899 67.627 284.943
696 5 1 0.0 70.429 67.627 284.943
697 5 1 0.0 69.865 66.629 285.250
698 5 2 0.0 69.100 67.954 285.250
699 5 1 0.0 70.630 67.954 285.250
700 5 1 0.0 69.517 67.116 284.766
701 5 2 0.0 68.752 68.441 284.766
702 5 1 0.0 70.282 68.441 284.766
703 5 1 0.0 69.957 66.859 285.110
704 5 2 0.0 69.192 68.184 285.110
705 5 1 0.0 70.722 68.184 285.110
706 5 1 0.0 69.564 67.033 285.348
707 5 2 0.0 68.799 68.358 285.348
708 5 1 0.0 70.329 68.358 285.348
709 5 1 0.0 69.230 67.242 285.780
710 5 2 0.0 68.465 68.567 285.780
711 5 1 0.0 69.995 68.567 285.780
712 5 1 0.0 68.771 67.534 285.601
713 5 2 0.0 68.006 68.859 285.601
714 5 1 0.0 69.536 68.859 285.601
715 5 1 0.0 68.400 67.697 285.705
716 5 2 0.0 67.635 69.022 285.705
717 5 1 0.0 69.165 69.022 285.705
718 5 1 0.0 68.706 67.910 285.853
719 5 2 0.0 67.941 69.235 285.853
720 5 1 0.0 69.471 69.235 285.853
721 5 1 0.0 68.727 67.641 286.097
722 5 2 0.0 67.962 68.966 286.097
723 5 1 0.0 69.492 68.966 286.097
724 5 1 0.0 68.912 67.423 285.791
725 5 2 0.0 68.147 68.748 285.791
726 5 1 0.0 69.677 68.748 285.791
727 5 1 0.0 68.998 67.530 285.807
728 5 2 0.0 68.233 68.855 285.807
729 5 1 0.0 69.763 68.855 285.807
730 5 1 0.0 68.499 67.704 286.202
731 5 2 0.0 67.734 69.029 286.202
732 5 1 0.0 69.264 69.029 286.202
733 5 1 0.0 68.112 67.804 286.200
734 5 2 0.0 67.347 69.129 286.200
735 5 1 0.0 68.877 69.129 286.200
736 5 1 0.0 68.454 67.796 286.024
737 5 2 0.0 67.689 69.121 286.024
738 5 1 0.0 69.219 69.121 286.024
739 5 1 0.0 68.260 67.882 286.389
740 5 2 0.0 67.495 69.207 286.389
741 5 1 0.0 69.025 69.207 286.389
742 5 1 0.0 68.387 68.247 286.489
743 5 2 0.0 67.622 69.572 286.489
744 5 1 0.0 69.152 69.572 286.489
745 5 1 0.0 68.089 68.678 286.614
746 5 2 0.0 67.324 70.003 286.614
747 5 1 0.0 68.854 70.003 286.614
748 5 1 0.0 68.301 68.573 286.338
749 5 2 0.0 67.536 69.898 286.338
750 5 1 0.0 69.066 69.898 286.338
751 6 1 0.0 39.075 102.672 124.608
752 6 2 0.0 38.310 103.998 124.608
753 6 1 0.0 39.840 103.998 124.608
754 6 1 0.0 39.500 103.084 124.756
755 6 2 0.0 38.735 104.409 124.756
756 6 1 0.0 40.265 104.409 124.756
757 6 1 0.0 39.441 102.806 124.409
758 6 2 0.0 38.676 104.131 124.409
759 6 1 0.0 40.206 104.131 124.409
760 6 1 0.0 39.246 102.753 124.036
761 6 2 0.0 38.481 104.078 124.036
762 6 1 0.0 40.011 104.078 124.036
763 6 1 0.0 39.560 103.022 124.426
764 6 2 0.0 38.795 104.347 124.426
765 6 1 0.0 40.325 104.347 124.426
766 6 1 0.0 39.455 103.220 124.703
767 6 2 0.0 38.690 104.545 124.703
768 6 1 0.0 40.220 104.545 124.703
769 6 1 0.0 39.207 102.793 125.060
770 6 2 0.0 38.442 104.118 125.060
771 6 1 0.0 39.972 104.118 125.060
772 6 1 0.0 39.549 102.966 124.959
773 6 2 0.0 38.784 104.291 124.959
774 6 1 0.0 40.314 104.291 124.959
775 6 1 0.0 39.706 102.592 125.368
776 6 2 0.0 38.941 103.917 125.368
777 6 1 0.0 40.471 103.917 125.368
778 6 1 0.0 39.208 102.585 125.607
779 6 2 0.0 38.443 103.910 125.607
780 6 1 0.0 39.973 103.910 125.607
781 6 1 0.0 39.060 102.386 125.215
782 6 2 0.0 38.295 103.711 125.215
783 6 1 0.0 39.825 103.711 125.215
784 6 1 0.0 39.220 102.451 125.376
785 6 2 0.0 38.455 103.776 125.376
786 6 1 0.0 39.985 103.776 125.376
787 6 1 0.0 39.312 102.792 125.738
788 6 2 0.0 38.547 104.117 125.738
789 6 1 0.0 40.077 104.117 125.738
790 6 1 0.0 39.717 102.306 125.863
791 6 2 0.0 38.952 103.631 125.863
792 6 1 0.0 40.482 103.631 125.863
793 6 1 0.0 39.501 102.714 125.605
794 6 2 0.0 38.736 104.039 125.605
795 6 1 0.0 40.266 104.039 125.605
796 6 1 0.0 39.931 103.174 125.385
797 6 2 0.0 39.166 104.499 125.385
798 6 1 0.0 40.696 104.499 125.385
799 6 1 0.0 39.665 102.943 125.529
800 6 2 0.0 38.900 104.268 125.529
801 6 1 0.0 40.430 104.268 125.529
802 6 1 0.0 39.849 102.903 125.982
803 6 2 0.0 39.084 104.228 125.982
804 6 1 0.0 40.614 104.228 125.982
805 6 1 0.0 40.184 102.889 125.768
806 6 2 0.0 39.419 104.214 125.768
807 6 1 0.0 40.949 104.214 125.768
808 6 1 0.0 39.889 103.279 125.839
809 6 2 0.0 39.124 104.604 125.839
810 6 1 0.0 40.654 104.604 125.839
811 6 1 0.0 40.077 102.932 126.170
812 6 2 0.0 39.312 104.257 126.170
813 6 1 0.0 40.842 104.257 126.170
814 6 1 0.0 39.844 103.337 126.394
815 6 2 0.0 39.079 104.662 126.394
816 6 1 0.0 40.609 104.662 126.394
817 6 1 0.0 39.773 103.638 126.379
818 6 2 0.0 39.008 104.963 126.379
819 6 1 0.0 40.538 104.963 126.379
820 6 1 0.0 40.067 103.266 126.428
821 6 2 0.0 39.302 104.591 126.428
822 6 1 0.0 40.832 104.591 126.428
823 6 1 0.0 39.939 102.844 126.777
824 6 2 0.0 39.174 104.169 126.777
825 6 1 0.0 40.704 104.169 126.777
826 6 1 0.0 39.906 102.901 127.216
827 6 2 0.0 39.141 104.226 127.216
828 6 1 0.0 40.671 104.226 127.216
829 6 1 0.0 39.773 102.723 126.801
830 6 2 0.0 39.008 104.048 126.801
831 6 1 0.0 40.538 104.048 126.801
832 6 1 0.0 39.826 102.891 127.193
833 6 2 0.0 39.061 104.216 127.193
834 6 1 0.0 40.591 104.216 127.193
835 6 1 0.0 39.551 102.992 127.529
836 6 2 0.0 38.786 104.317 127.529
837 6 1 0.0 40.316 104.317 127.529
838 6 1 0.0 39.909 102.728 127.499
839 6 2 0.0 39.144 104.053 127.499
840 6 1 0.0 40.674 104.053 127.499
841 6 1 0.0 40.010 103.030 127.174
842 6 2 0.0 39.245 104.355 127.174
843 6 1 0.0 40.775 104.355 127.174
844 6 1 0.0 40.047 102.643 127.447
845 6 2 0.0 39.282 103.968 127.447
846 6 1 0.0 40.812 103.968 127.447
847 6 1 0.0 39.778 102.379 126.963
848 6 2 0.0 39.013 103.704 126.963
849 6 1 0.0 40.543 103.704 126.963
850 6 1 0.0 39.809 102.252 126.752
851 6 2 0.0 39.044 103.577 126.752
852 6 1 0.0 40.574 103.577 126.752
853 6 1 0.0 39.981 102.238 126.271
854 6 2 0.0 39.216 103.563 126.271
855 6 1 0.0 40.746 103.563 126.271
856 6 1 0.0 39.786 102.042 126.680
857 6 2 0.0 39.021 103.367 126.680
858 6 1 0.0 40.551 103.367 126.680
859 6 1 0.0 39.495 102.120 127.031
860 6 2 0.0 38.730 103.445 127.031
861 6 1 0.0 40.260 103.445 127.031
862 6 1 0.0 39.462 102.409 127.478
863 6 2 0.0 38.697 103.734 127.478
864 6 1 0.0 40.227 103.734 127.478
865 6 1 0.0 39.423 102.055 127.198
866 6 2 0.0 38.658 103.380 127.198
867 6 1 0.0 40.188 103.380 127.198
868 6 1 0.0 39.581 101.768 126.904
869 6 2 0.0 38.816 103.093 126.904
870 6 1 0.0 40.346 103.093 126.904
871 6 1 0.0 39.355 101.289 127.226