ITEM: TIMESTEP
10000
ITEM: NUMBER OF ATOMS
20441
ITEM: BOX BOUNDS pp pp pp
-6.5837209941339859e+02 8.5837209941298420e+02
-6.5837209941339859e+02 8.5837209941298420e+02
0.0000000000000000e+00 3.0000000000000000e+02
ITEM: ATOMS id type x y z
734 2 -153.838 -154.608 0.786074
732 1 -152.535 -155.284 2.99104
733 1 -152.543 -154.581 1.71883
731 2 -151.946 -155.122 4.29113
730 1 -150.742 -154.357 4.79664
729 1 -149.56 -154.649 5.81072
728 2 -148.801 -156.163 5.6551
727 1 -147.546 -156.293 5.09048
726 1 -147.585 -156.092 3.47986
725 2 -146.422 -155.038 2.80936
724 1 -146.757 -154.064 1.75096
723 1 -148.074 -153.28 1.89053
677 2 -159.846 -150.079 3.05824
679 1 -158.513 -148.183 3.83551
680 2 -158.658 -146.84 4.4851
699 1 -155.821 -150.395 6.69582
701 2 -153.919 -151.252 4.76741
700 1 -154.613 -150.188 5.5225
674 2 -159.52 -152.765 0.791933
675 1 -158.833 -152.619 2.39581
702 1 -153.429 -151.247 3.1292
678 1 -159.58 -149.212 4.00203
676 1 -159.67 -151.604 3.39717
665 2 -157.133 -146.481 0.0912813
703 1 -154.126 -150.601 2.15821
704 2 -154.088 -150.375 0.431374
664 1 -155.742 -146.465 1.2345
616 1 -149.629 -146.485 6.26885
615 1 -149.561 -147.862 5.7842
614 2 -149.429 -149.264 6.8505
650 2 -145.946 -145.894 6.93123
722 2 -148.419 -151.966 2.87967
721 1 -149.101 -150.787 1.97097
718 1 -146.728 -148.185 1.25733
719 2 -148.195 -148.464 1.61663
720 1 -148.493 -149.668 2.3986
642 1 -143.224 -152.452 6.95442
643 1 -142.753 -152.229 5.49985
646 1 -143.14 -149.277 4.24778
645 1 -143.208 -150.595 3.52086
644 2 -143.792 -151.778 4.3279
647 2 -144.221 -148.117 4.40949
648 1 -145.086 -147.911 5.51868
649 1 -144.778 -147.056 6.68188
601 1 -136.967 -146.695 4.45932
602 2 -137.197 -147.606 5.80732
603 1 -138.13 -146.662 6.71033
684 1 -155.51 -144.992 6.46631
683 2 -156.453 -144.101 5.67963
682 1 -158.197 -144.426 5.34509
681 1 -158.681 -145.277 4.31624
663 1 -155.382 -145.298 2.01627
661 1 -153.509 -143.705 0.470521
662 2 -153.898 -144.658 1.74045
617 2 -150.998 -145.659 6.36438
618 1 -151.214 -144.144 6.75006
654 1 -146.992 -141.845 5.66153
655 1 -148.103 -142.367 4.60829
656 2 -147.874 -142.566 3.14213
657 1 -148.345 -143.797 2.06691
658 1 -149.637 -144.503 2.0607
659 2 -150.494 -144.318 0.815071
660 1 -151.975 -143.298 0.885039
653 2 -145.689 -142.421 6.58621
5826 1 291.474 230.185 0.953033
5824 1 291.512 232.654 0.158028
5823 1 290.09 233.07 0.278839
5825 2 292.16 231.404 0.783411
5725 1 295.866 232.644 1.47579
5723 2 296.204 232.396 4.13672
5726 2 296.624 232.517 0.344887
5724 1 296.698 232.506 2.56718
5722 1 297.261 233.074 5.10322
5701 1 301.523 233.092 2.72447
5762 2 289.296 237.86 5.44072
5764 1 286.738 237.23 5.91691
5763 1 287.909 237.386 4.75816
5765 2 285.566 238.275 6.28698
5821 1 289.01 235.659 0.143357
5818 1 288.868 239.26 1.65051
5819 2 289.112 238.459 0.275669
5761 1 290.745 237.766 4.86345
5760 1 291.391 236.92 3.70039
5756 2 296.356 237.181 2.44734
5758 1 293.568 236.153 2.71175
5757 1 295.116 236.743 3.0973
5759 2 292.55 237.295 3.03453
5713 1 303.148 239.087 4.7444
5714 2 302.537 237.538 4.64733
5715 1 301.951 236.699 5.86867
5716 1 300.842 236.795 6.37659
5721 1 296.955 233.87 6.78948
5752 1 299.423 238.618 0.0635553
5753 2 299.618 238.115 1.17907
5754 1 298.964 236.917 1.72987
5755 1 297.828 236.984 2.88814
5702 2 302.627 234.072 3.02568
5707 1 305.584 237.379 0.197814
5708 2 306.755 238.449 0.098933
5709 1 307.346 239.061 1.3412
5712 1 304.144 239.551 3.34007
5703 1 304.141 233.941 2.88888
5704 1 304.879 233.904 1.49887
5705 2 304.589 234.908 0.290084
5817 1 289.082 240.656 1.6142
5816 2 289.025 241.801 2.8413
5814 1 290.613 243.386 4.38706
5815 1 289.791 242.106 4.11708
5812 1 291.204 244.394 6.70955
5813 2 290.202 244.478 5.39318
5811 1 292.192 245.625 6.74383
5710 1 306.597 240.45 2.03478
5711 2 304.995 240.584 2.78172
11456 2 -343.326 321.401 0.00234976
3585 1 -336.374 322.253 3.61323
3586 1 -336.595 320.978 2.7154
3587 2 -338.053 320.795 2.12555
3588 1 -338.387 321.036 0.716123
3584 2 -335.049 323.081 3.17837
3583 1 -335.029 324.499 2.01257
11467 1 -352.775 328.693 0.400758
11497 1 -345.66 330.382 1.24302
3582 1 -335.762 325.902 2.42798
3580 1 -337.842 326.2 0.672309
3581 2 -336.74 326.701 1.48916
3517 1 -353.767 334.004 0.93287
3518 2 -353.834 335.433 1.39865
3519 1 -352.425 336.088 1.23749
3520 1 -352.045 337.325 0.132289
3516 1 -354.843 333.456 0.0371853
11496 1 -345.951 331.778 1.11983
11495 2 -346.134 332.732 2.62631
11494 1 -346.751 334.279 2.38833
11492 2 -346.662 336.503 0.571998
11493 1 -346.117 335.364 1.52186
3452 2 -339.168 331.956 0.00757621
3479 2 -356.609 341.798 1.52225
3480 1 -356.751 343.204 0.99488
3477 1 -355.222 340.297 2.65619
3476 2 -353.795 339.926 2.57467
3478 1 -355.403 341.56 2.43749
3475 1 -352.422 340.431 3.29308
3474 1 -350.89 340.371 2.53833
3473 2 -350.414 340.748 1.24574
3470 2 -347.175 342.343 0.331037
3472 1 -348.987 340.536 0.811125
3528 1 -352.317 345.849 0.367249
2720 2 -485.195 472.12 0.506701
2718 1 -484.418 471.482 3.25132
2717 2 -483.106 471.011 3.32137
2719 1 -485.228 471.294 2.01457
2709 1 -476.421 466.31 5.88403
2708 2 -477.879 466.018 6.68224
2711 2 -475.982 468.556 4.29096
2710 1 -476.376 466.461 4.36668
2716 1 -482.236 472.116 2.6744
2714 2 -479.45 471.244 4.0389
2715 1 -480.423 471.716 2.96063
2713 1 -478.35 469.864 3.78699
2712 1 -477.158 469.839 4.45214
13133 2 122.328 569.899 0.999304
13132 1 123.407 569.162 0.104743
13142 2 112.274 573.02 2.78174
13143 1 112.286 573.163 1.12553
13141 1 113.561 572.157 3.47302
13138 1 117.543 572.336 2.24867
13137 1 118.489 572.355 3.40616
13136 2 120.273 572.308 3.50167
13139 2 116.177 571.709 2.86131
13140 1 115.071 572.704 3.36715
13149 1 118.256 575.918 0.0524621
13150 1 119.826 575.851 0.295098
13151 2 120.304 576.744 1.32097
13134 1 122.523 571.164 1.63727
13135 1 121.36 572.316 2.23285
13153 1 122.046 576.988 3.16654
13152 1 121.079 576.158 2.34862
13172 2 115.436 578.951 2.99393
13165 1 121 583.74 1.89559
13166 2 120.094 582.883 2.61286
13170 1 117.214 579.607 4.89334
13173 1 115.65 577.928 1.67211
13174 1 115.716 578.571 0.452058
13167 1 119.08 583.077 3.31855
13168 1 118.29 581.739 3.32554
13169 2 117.617 581.186 4.6135
13171 1 115.928 578.969 4.37762
13156 1 126.006 577.752 3.34829
13155 1 124.446 577.903 3.70184
13154 2 123.361 577.627 2.83338
13159 1 125.917 581.432 2.33559
13158 1 126.999 580.273 2.54068
13157 2 127.114 578.663 2.60918
13162 1 124.826 584.29 0.863223
13163 2 123.157 584.449 0.846927
13164 1 121.917 583.445 0.769223
13161 1 125.392 583.959 2.52496
13160 2 126.115 582.864 2.71281
5151 1 -463.024 675.12 2.31094
5150 2 -462.201 675.477 3.45182
5152 1 -462.857 673.944 1.23081
5221 1 -458.41 674.36 4.90197
5220 1 -458.607 672.99 4.4716
5219 2 -459.448 672.247 5.59814
5218 1 -458.842 671.484 6.82083
5222 2 -457.203 675.132 4.63647
5157 1 -456.641 673.79 0.383391
5153 2 -461.645 673.386 0.279191
5155 1 -459.243 674.882 0.219787
5165 2 -451.054 672.908 6.05109
5164 1 -451.929 673.63 5.40674
5163 1 -451.773 674.59 4.25034
5162 2 -452.406 674.43 2.93311
5161 1 -452.237 673.179 2.10487
5160 1 -452.586 673.441 0.440359
5148 1 -461.784 678.282 3.48195
5146 1 -461.486 680.642 4.73753
5147 2 -461.074 679.759 3.60687
5149 1 -461.22 676.869 3.46151
5227 1 -457.431 681.516 3.72457
5144 2 -460.52 680.665 7.06945
5145 1 -461.454 680.213 6.14541
5223 1 -456.595 676.491 3.595
5226 1 -457.375 680.126 3.40535
5224 1 -456.36 677.913 4.21526
5225 2 -456.068 679.069 3.32371
5228 2 -456.793 682.231 4.95928
5229 1 -455.622 681.962 5.70417
5177 2 -452.993 678.21 5.69613
5179 1 -450.354 678.494 6.27157
5180 2 -449.43 677.361 6.0228
5178 1 -451.472 678.906 5.36776
5198 2 -447.222 682.781 6.69496
5183 2 -446.133 678.168 7.10503
5188 1 -440.794 681.855 6.98995
5189 2 -441.364 682.952 5.85309
5196 1 -445.828 683.667 4.46648
5195 2 -445.563 684.267 3.04328
5194 1 -444.165 684.94 2.68037
5192 2 -441.107 684.322 2.47625
5193 1 -442.764 683.955 2.61625
5197 1 -447.036 683.002 4.98725
5191 1 -440.239 684.779 3.94706
5190 1 -440.173 683.952 5.29083
632 2 -151.201 -152.831 8.99072
633 1 -150.864 -153.177 10.3226
636 1 -148.407 -155.649 11.4897
637 1 -147.229 -154.824 11.0581
634 1 -150.825 -154.493 10.5647
635 2 -149.604 -155.745 10.5193
639 1 -144.338 -154.882 10.0654
640 1 -144.746 -154.331 8.64085
638 2 -145.625 -155.432 10.8504
641 2 -143.473 -153.856 7.69414
695 2 -160.307 -148.252 8.17788
694 1 -161.656 -147.282 7.41326
693 1 -163.025 -146.889 8.22239
698 2 -156.492 -149.286 7.80157
696 1 -158.753 -147.841 8.17327
697 1 -157.958 -149.134 8.15693
629 2 -153.029 -149.62 10.101
628 1 -152.977 -148.273 10.7369
612 1 -147.993 -150.569 8.52609
613 1 -148.451 -149.202 7.95474
611 2 -147.021 -150.152 9.97442
631 1 -152.616 -152.009 8.74763
630 1 -152.733 -150.311 8.65147
626 2 -151.315 -146.857 12.3157
627 1 -151.417 -147.637 10.8103
610 1 -145.523 -149.517 9.60252
609 1 -144.123 -149.966 10.0356
604 1 -139.186 -147.549 7.83076
605 2 -140.272 -146.797 8.72316
606 1 -141.652 -147.357 8.60585
608 2 -142.73 -149.052 10.2641
607 1 -142.487 -147.719 9.67048
690 1 -160.41 -144.145 10.0018
691 1 -161.653 -145.001 10.259
692 2 -162.543 -145.312 8.88738
685 1 -154.931 -144.751 7.82414
687 1 -156.542 -145.367 10.0711
688 1 -157.854 -144.208 10.0491
689 2 -159.167 -144.522 10.7238
686 2 -155.122 -145.441 9.24602
625 1 -152.118 -145.752 12.7045
624 1 -151.466 -144.267 13.0553
623 2 -151.87 -142.959 12.1618
622 1 -150.667 -142.421 11.4276
621 1 -150.126 -142.895 10.1188
619 1 -150.513 -143.628 7.86239
620 2 -151.031 -143.075 8.97935
651 1 -146.154 -144.905 8.2557
652 1 -145.697 -143.507 7.79887
14153 2 487.116 -86.2118 14.0871
14154 1 487.735 -87.5464 14.0823
14250 1 485.715 -79.9971 11.9321
14246 2 488.177 -76.7344 12.1926
14247 1 487.408 -77.3548 13.429
14245 1 489.737 -76.69 12.2031
14231 2 490.57 -81.882 13.3045
14232 1 491.403 -80.4153 13.1013
14233 1 492.823 -79.9546 13.6607
14248 1 487.841 -79.0219 13.678
14249 2 486.848 -80.3514 13.206
14242 1 493.253 -76.0546 12.4513
14241 1 494.465 -76.1365 13.2002
14240 2 495.605 -76.9981 12.5668
14239 1 496.567 -78.0303 13.172
14234 2 494.043 -81.0375 13.6993
14115 1 501.107 -80.5247 13.2128
14114 2 502.751 -80.7826 13.385
14113 1 503.119 -81.8836 14.1571
14116 1 500.7 -78.8662 13.3498
14243 2 492.076 -75.108 12.9036
14244 1 490.619 -75.4197 12.202
14120 2 499.128 -73.626 13.9661
14119 1 499.36 -75.4374 13.6845
5766 1 285.499 238.619 7.57158
5767 1 285.391 240.147 8.17494
5718 1 298.984 236.058 8.14352
5717 2 300.379 236.323 7.63138
5720 2 297.884 233.479 8.15762
5719 1 298.687 234.631 8.84774
5770 1 288.688 241.978 9.44337
5771 2 289.547 242.076 10.6053
5769 1 287.875 240.525 9.02254
5772 1 288.808 242.657 11.7845
5768 2 286.602 240.913 8.44365
5774 2 289.327 243.753 13.7629
5773 1 289.478 243.614 12.3627
5789 2 293.81 244.034 14.1647
5788 1 293.873 244.627 12.5309
5786 2 293.473 241.993 10.9551
5787 1 293.989 243.603 11.1493
5775 1 290.848 244.056 14.0695
5784 1 293.067 240.466 13.3295
5785 1 292.619 240.857 11.9579
5810 2 292.032 246.906 7.74877
5802 1 287.518 247.476 13.9485
5804 2 289.015 248.924 12.2066
5803 1 287.759 248.001 12.5016
5805 1 290.672 248.347 12.0014
5806 1 291.897 249.253 11.4086
5807 2 291.903 249.744 9.70924
5809 1 291.279 248.278 7.56367
5808 1 290.798 249.35 8.60609
13201 1 -318.716 258.372 12.8789
13203 1 -316.668 260.044 13.6634
13202 2 -318.274 259.707 13.3648
13280 2 -315.595 263.853 8.91677
13281 1 -315.181 264.932 7.61425
13279 1 -317.031 263.927 9.06236
13205 2 -314.899 261.996 14.028
13204 1 -316.233 261.638 13.6373
13272 1 -320.405 268.434 10.3699
13277 2 -319.125 262.156 10.2655
13278 1 -317.78 262.437 9.60221
13275 1 -319.668 264.56 11.7135
13276 1 -320.116 263.101 11.0918
13273 1 -320.033 267.206 11.4192
13274 2 -320.808 265.934 11.4879
13292 2 -314.403 268.263 13.5174
13209 1 -310.743 264.52 14.0773
13282 1 -314.162 265.891 8.18912
13283 2 -312.923 266.055 7.20483
13285 1 -310.788 267.84 8.11185
13284 1 -311.389 266.249 7.90634
13214 2 -304.61 266.094 13.9645
13216 1 -302.388 267.957 13.6093
13271 2 -319.424 269.504 9.87913
13269 1 -318.223 271.128 11.7925
13289 2 -314.9 269.642 9.80698
13266 1 -315.126 272.474 13.4601
13267 1 -316.562 272.975 12.9141
13268 2 -317.187 272.186 11.6602
13270 1 -319.396 270.775 10.6814
13290 1 -314.992 268.783 11.1363
13227 1 -310.982 272.72 11.839
13225 1 -309.524 274.796 13.0054
13226 2 -310.795 274.047 12.3043
13228 1 -309.854 271.397 12.1234
13224 1 -308.251 275.038 12.2659
13288 1 -313.784 269.767 8.73601
13286 2 -311.299 268.989 8.99113
13287 1 -312.233 270.122 8.5685
13229 2 -310.531 270.273 13.0739
13291 1 -314.251 269.051 12.239
13219 1 -302.542 271.535 12.7006
13220 2 -303.609 272.272 11.4225
13223 2 -306.89 274.329 12.595
13222 1 -305.74 273.969 11.251
13221 1 -304.155 273.67 11.5735
13218 1 -302.417 270.288 12.5471
13217 2 -303.042 269.201 13.2311
2703 1 -478.386 468.889 12.0834
2705 2 -476.625 466.673 10.9668
2704 1 -477.58 467.401 12.3224
2707 1 -477.51 465.964 8.32517
2706 1 -477.51 466.937 9.36064
2701 1 -478.996 471.073 13.4415
2702 2 -478.088 470.018 12.9379
5215 1 -459.247 672.58 10.551
5216 2 -458.407 671.547 9.5437
5217 1 -459.248 671.136 8.36573
5214 1 -458.423 672.792 11.5651
5213 2 -458.435 674.105 12.3063
5212 1 -457.133 674.737 12.753
5166 1 -450.561 673.365 7.4641
5171 2 -451.651 673.645 12.2145
5170 1 -450.231 673.015 11.7775
5172 1 -452.622 674.626 11.4982
5169 1 -449.505 673.017 10.4705
5168 2 -449.553 671.86 9.51549
5167 1 -450.559 672.13 8.51746
5173 1 -452.369 675.382 9.91098
5211 1 -456.771 675.829 13.9356
5143 1 -460 679.593 8.13138
5230 1 -455.541 681.905 7.34785
5231 2 -456.708 682.714 8.58603
5142 1 -459.968 679.603 9.73286
5139 1 -457.902 680.427 13.1601
5140 1 -458.936 679.497 12.3723
5141 2 -458.903 679.375 10.7195
5138 2 -456.386 680.185 12.8489
5137 1 -455.681 681.547 12.4525
5205 1 -450.676 678.594 13.3978
5206 1 -452.062 678.593 14.198
5204 2 -450.559 678.541 11.757
5203 1 -449.223 679.374 11.0825
5174 2 -453.129 676.653 9.66968
5175 1 -453.775 676.869 8.15126
5176 1 -453.772 678.143 7.24297
5136 1 -454.098 681.496 12.1626
5135 2 -453.325 682.769 12.7008
5134 1 -451.925 682.756 13.4143
5200 1 -448.713 681.425 8.59861
5201 2 -449.223 681.969 9.96779
5199 1 -448.608 682.175 7.29965
5202 1 -449.052 681.174 11.0751
5181 1 -448.477 676.954 7.17296
5112 1 -445.579 678.916 13.7099
5111 2 -444.368 677.956 13.3934
5114 2 -445.486 681.387 12.5815
5115 1 -444.638 681.996 11.6362
5113 1 -446.041 679.896 12.4999
5182 1 -446.992 676.915 7.16858
5184 1 -444.877 678.232 7.96505
5185 1 -444.055 679.455 7.91074
5186 2 -442.565 679.612 7.81046
5187 1 -441.924 681.199 7.95988
5232 1 -456.422 684.333 8.81862
5236 1 -457.726 684.848 13.8891
5235 1 -456.367 685.37 13.0255
5234 2 -456.509 685.656 11.5103
5233 1 -455.614 684.936 10.4038
5128 1 -448.075 687.486 12.9545
5129 2 -449.006 687.817 14.1968
5117 2 -443.112 684.224 10.5421
5118 1 -441.605 684.587 10.4189
5116 1 -443.632 683.332 11.768
5127 1 -446.587 687.719 13.2707
5126 2 -445.792 688.744 12.4667
5125 1 -444.529 688.04 11.7237
5122 1 -441.481 689.283 10.4674
5121 1 -441.157 688.679 9.10882
5120 2 -441.132 687.044 9.10971
5119 1 -441.155 686.136 10.4916
5124 1 -443.343 688.943 11.9774
5123 2 -442.808 689.818 10.858
3356 2 549.24 -357.668 20.4401
3355 1 550.487 -356.907 19.6859
3360 1 544.782 -355.86 20.65
3361 1 544.617 -354.46 20.0694
3362 2 544.721 -352.921 21.0472
3350 2 549.111 -350.496 19.636
3349 1 548.88 -349.627 18.3592
3364 1 544.621 -350.285 20.5343
3363 1 543.895 -351.761 20.5683
3341 2 553.609 -349.667 21.0213
3353 2 550.797 -354.189 19.6198
3352 1 549.651 -353.085 19.9061
3354 1 550.21 -355.391 19.0185
3351 1 550.109 -351.808 19.9081
3368 2 541.966 -347.265 20.7828
3348 1 548.609 -348.021 17.9602
3347 2 549.218 -347.015 18.8279
3365 2 544.837 -349.276 19.5794
3366 1 544.53 -347.823 20.0138
3367 1 543.042 -347.076 19.7194
3346 1 550.539 -346.484 18.5079
3345 1 551.642 -345.937 19.3944
3344 2 552.944 -346.348 18.9116
3342 1 554.281 -348.212 20.5812
3343 1 553.885 -347.505 19.2032
3329 2 561.509 -349.185 20.8919
3328 1 559.937 -349.047 21.2475
14159 2 488.512 -90.6149 18.7126
14161 1 486.421 -89.9778 19.8537
14158 1 488.744 -90.3055 17.204
14211 1 495.695 -89.8497 20.6169
14209 1 498.468 -89.7379 20.3766
14102 2 502.881 -90.2267 20.0876
14103 1 504.052 -90.9729 19.0797
14104 1 505.604 -90.5044 19.39
14163 1 483.88 -89.299 20.1571
14164 1 482.388 -89.3518 19.6731
14162 2 484.891 -89.5334 19.365
14166 1 480.174 -89.0518 21.1816
14165 2 481.235 -88.5197 20.1286
14149 1 485.059 -85.4831 18.64
14146 1 482.769 -82.7187 20.7077
14147 2 483.106 -83.8182 20.0795
14148 1 484.155 -84.0864 18.8726
14152 1 486.343 -85.8052 15.4759
14155 1 489.221 -87.5514 14.5267
14156 2 489.739 -89.0107 14.8354
14151 1 486.681 -84.8469 16.4393
14160 1 487.76 -89.4479 19.2144
14150 2 486.358 -85.0878 18.0227
14228 2 491.029 -83.9267 17.0899
14227 1 492.746 -84.1062 17.3186
14229 1 490.476 -83.6681 15.4978
14157 1 489.875 -89.5917 16.3977
14213 2 493.044 -88.8578 19.8376
14217 1 490.333 -84.7388 21.3333
14214 1 491.946 -88.2576 21.148
14216 2 490.882 -86.0216 20.6487
14215 1 490.875 -87.5722 20.6837
14225 2 495.135 -83.6285 18.6257
14226 1 493.724 -83.138 18.2505
14212 1 494.772 -88.7643 19.7985
14208 1 499.594 -88.3125 20.3289
14210 2 496.997 -89.2346 21.0011
14206 1 499.662 -85.6977 19.6669
14207 2 499.547 -87.0669 19.2963
14224 1 495.988 -83.4114 20.0873
14106 1 505.76 -88.3267 17.7784
14105 2 506.306 -89.46 18.611
14205 1 500.521 -84.7763 18.9494
14204 2 501.011 -83.458 19.8412
14107 1 506.231 -86.8295 17.8254
14108 2 505.241 -85.7027 18.3635
14111 2 504.668 -83.2056 15.6919
14109 1 505.363 -84.3561 17.8639
14110 1 504.379 -83.6742 16.8329
14145 1 481.893 -81.7278 20.1302
14144 2 481.475 -80.2371 20.771
14187 1 488.459 -81.9675 19.8803
14186 2 487.373 -81.7554 20.8979
14190 1 489.824 -79.2361 17.4058
14191 1 490.191 -78.0531 16.5214
14192 2 491.569 -77.3472 16.5798
14189 2 489.61 -79.5423 18.9242
14188 1 489.786 -80.9097 19.7766
14193 1 492.988 -77.8511 17.571
14230 1 490.209 -82.4883 14.7697
14235 1 494.783 -81.2148 15.0892
14236 1 496.086 -80.5142 15.6819
14237 2 496.099 -78.7898 15.7269
14238 1 496.621 -77.8516 14.8302
14195 2 494.549 -77.2289 19.6382
14194 1 493.623 -76.5947 18.5758
14196 1 495.874 -76.5706 19.7008
14197 1 497.385 -77.1354 19.6507
14199 1 499.743 -77.7009 20.445
14198 2 498.29 -77.4392 20.9413
14118 1 500.19 -76.3359 14.8203
14200 1 500.758 -78.9475 20.8632
14201 2 501.526 -79.8519 19.8518
14202 1 502.066 -81.153 20.3348
14203 1 501.964 -82.43 19.5821
14112 1 504.026 -81.8955 15.2394
14117 2 500.357 -77.988 14.7468
14123 2 495.939 -73.2924 16.1028
14121 1 498.067 -73.3192 15.0264
14122 1 496.678 -72.7262 14.8573
14126 2 495.846 -71.4782 19.7188
14127 1 495.855 -72.1742 21.3017
14124 1 495.423 -72.132 16.9482
14125 1 494.903 -72.179 18.5291
151 1 -141.364 -48.6339 18.0836
152 2 -140.951 -49.1761 19.4954
153 1 -141.878 -50.0332 20.1425
6963 1 -143.156 -40.9299 19.3979
6967 1 -139.192 -43.0486 18.6249
6964 1 -142.922 -42.3727 19.9942
6965 2 -141.733 -42.9563 19.2635
6966 1 -140.166 -42.971 19.5057
6970 1 -137.09 -45.7863 20.5736
6969 1 -136.906 -44.2283 20.0818
6968 2 -137.746 -43.7526 18.7864
6960 1 -146.595 -39.3597 21.2459
6961 1 -145.093 -40.003 21.0211
6962 2 -144.632 -40.3784 19.5669
5795 2 285.706 244.967 19.0053
5793 1 287.934 244.142 19.8275
5794 1 286.982 244.315 18.7017
5798 2 283.312 246.112 16.1185
5797 1 283.198 245.618 17.5947
5796 1 284.486 244.535 18.1199
5792 2 289.56 243.813 19.3394
5781 1 292.301 246.205 15.606
5780 2 293.23 247.441 16.0424
5777 2 293.707 245.054 18.5747
5778 1 294.152 246.541 18.3256
5782 1 292.26 242.052 15.6305
5783 2 292.154 240.902 14.5792
5776 1 293.518 244.11 17.2403
5790 1 290.608 244.206 16.9074
5791 1 289.92 243.182 17.8613
5801 2 286.508 247.87 14.9911
5800 1 284.945 248.07 14.8819
5799 1 283.808 247.691 15.9209
5779 1 293.395 247.709 17.3954
13313 2 -322.179 266.629 20.3887
13314 1 -322.526 267.828 19.2633
13301 2 -314.375 262.142 20.1384
13300 1 -315.196 262.916 19.0856
13299 1 -315.122 264.562 18.4154
13295 2 -317.858 267.901 15.635
13296 1 -317.692 266.286 15.847
13297 1 -316.282 265.765 16.471
13298 2 -316.361 265.427 17.9275
13315 1 -321.192 268.101 18.4569
13207 1 -313.155 263.848 15.4368
13211 2 -307.941 264.186 15.1587
13208 2 -312.106 264.708 15.0369
13206 1 -314.22 263.349 14.2952
13210 1 -309.394 263.802 14.4311
13250 2 -308.401 263.953 19.1994
13252 1 -310.433 265.373 19.7209
13251 1 -309.071 264.827 20.2094
13253 2 -311.797 265.63 20.5596
13254 1 -312.199 266.89 20.8174
13255 1 -313.218 267.647 19.7578
13212 1 -306.783 264.698 14.3051
13213 1 -305.546 265.585 15.0318
13215 1 -303.245 266.849 14.2969
13249 1 -307.142 263.294 19.6924
13248 1 -307.011 261.767 20.418
13345 1 -321.54 275.12 16.8338
13338 1 -322.774 273.159 21.2329
13348 1 -323.511 271.739 16.0038
13346 2 -322.491 274.045 15.9265
13349 2 -324.456 270.568 16.5634
13350 1 -324.733 269.317 15.5568
13347 1 -323.536 273.096 16.4473
13265 2 -314.447 273.112 14.9151
13294 1 -316.874 268.715 14.8103
13293 1 -315.22 268.738 14.6618
13319 2 -317.253 271.686 18.3368
13318 1 -318.635 270.831 17.6215
13316 2 -320.812 269.704 18.1294
13317 1 -319.361 269.753 18.2546
13344 1 -320.619 274.832 18.0725
13320 1 -317.381 273.104 18.9411
13321 1 -316.76 273.322 20.4161
13322 2 -317.48 273.993 21.2876
13262 2 -311.392 274.747 17.1589
13258 1 -313.238 271.501 19.6677
13259 2 -312.467 272.617 20.419
13260 1 -312.629 274.11 19.7229
13263 1 -312.755 274.602 16.379
13264 1 -312.904 273.632 15.1778
13261 1 -311.417 274.749 18.805
13232 2 -309.777 268.833 16.8923
13231 1 -310.166 269.135 15.4391
13234 1 -307.687 268.607 18.4106
13233 1 -308.242 268.688 17.0048
13230 1 -310.192 270.429 14.5569
13256 2 -313.604 269.063 19.4203
13257 1 -313.072 270.209 20.1554
13235 2 -306.973 269.58 19.2575
13236 1 -307.043 269.744 20.8259
13341 1 -321.578 277.081 21.1726
13342 1 -320.773 276.903 19.6156
13343 2 -319.947 275.848 18.9679
5210 2 -455.908 675.381 15.3313
5209 1 -454.476 675.666 15.4753
5247 1 -460.293 680.961 19.6231
5248 1 -461.154 681.474 20.8715
5246 2 -460.041 679.375 19.4619
5240 2 -455.213 681.826 17.007
5245 1 -458.861 678.15 19.9799
5241 1 -455.097 680.659 18.1645
5242 1 -456.376 679.633 18.2173
5243 2 -456.224 678.338 19.2497
5244 1 -457.744 677.691 19.1461
5208 1 -453.898 677.035 14.6805
5207 2 -452.591 677.483 14.9065
5109 1 -442.086 678.829 14.307
5110 1 -443.269 677.911 14.522
5108 2 -441.03 679.171 15.2752
5106 1 -441.388 682.053 15.227
5107 1 -440.522 680.439 14.9509
5239 1 -456.265 682.88 17.0572
5237 2 -457.695 684.388 15.3574
5238 1 -456.388 683.372 15.7441
5133 1 -451.576 683.305 14.9346
5131 1 -450.465 685.64 15.5583
5132 2 -450.093 684.074 15.2273
5130 1 -449.297 686.822 15.408
5102 2 -442.183 686.956 15.5944
5105 2 -440.719 683.415 16.0421
5103 1 -441.76 685.526 16.1821
5104 1 -440.853 684.69 15.2307
5101 1 -441.729 687.957 16.6098
3434 2 542.149 -361.027 27.3893
3435 1 540.874 -359.805 27.8543
3357 1 548.214 -357.17 21.4372
3358 1 546.776 -357.58 21.4813
3416 2 547.513 -357.396 28.3963
3428 2 547.023 -362.689 28.479
3429 1 547.747 -362.488 27.3044
3431 2 546.025 -360.695 25.5794
3430 1 547.534 -361.153 26.7021
3432 1 544.49 -360.893 25.7344
3433 1 543.546 -360.576 27.199
3415 1 547.509 -356.757 26.7234
3418 1 549.909 -358.597 28.2598
3394 1 556.223 -358.785 23.9086
3395 2 555.494 -357.777 23.5097
3396 1 554.433 -356.777 24.1894
3393 1 557.394 -358.597 25.0671
3391 1 557.872 -357.668 27.5159
3392 2 557.255 -358.712 26.5522
3411 1 542.146 -355.592 25.2833
3410 2 541.726 -354.041 25.2065
7905 1 539.074 -352.992 28.2819
3359 2 545.712 -356.274 21.8019
3409 1 542.401 -352.776 24.9781
3401 2 549.076 -353.514 24.4021
3402 1 548.096 -352.535 25.1677
3403 1 547.986 -350.778 24.877
3413 2 544.902 -355.729 25.3946
3412 1 543.527 -356.279 25.7722
3414 1 546.4 -355.932 26.5629
3407 2 544.485 -352.013 26.0777
3408 1 543.069 -352.297 26.2973
3404 2 546.745 -350.058 24.5209
3406 1 544.604 -350.304 25.9225
3405 1 545.776 -349.473 25.7871
3340 1 554.501 -350.841 21.9867
3338 2 556.146 -351.317 24.2436
3339 1 555.305 -350.013 23.2719
3400 1 550.348 -354.464 25.1297
3399 1 551.581 -355.182 24.4982
3398 2 552.954 -354.492 23.7986
3397 1 554.166 -355.32 23.4881
3389 2 555.73 -356.157 28.4454
3336 1 558.561 -352.111 24.9418
3337 1 557.374 -351.013 25.0792
3334 1 561.1 -351.737 24.9283
3335 2 559.734 -352.065 25.66
3333 1 561.839 -352.822 23.9485
3332 2 561.579 -352.589 22.417
3331 1 562.624 -351.625 21.696
3330 1 562.639 -350.22 21.6771
3369 1 541.989 -347.302 22.2513
3370 1 540.612 -347.203 23.0787
3374 2 541.394 -348.319 28.3578
3373 1 540.847 -348.004 26.7664
3372 1 541.353 -348.573 25.4843
3371 2 540.4 -348.28 24.1688
7856 2 549.083 -346.266 22.4058
7854 1 546.769 -346.212 24.0234
7855 1 547.659 -346.722 22.7586
7853 2 546.027 -344.727 24.0727
7852 1 546.795 -343.4 24.4537
7851 1 547.015 -343.055 25.8703
7884 1 546.693 -345.719 28.4701
7859 2 551.875 -345.367 24.1599
7860 1 551.52 -343.696 24.4466
7858 1 551.715 -346.322 23.0056
7857 1 550.427 -347.103 22.7588
7878 1 554.094 -349.052 27.5236
7881 1 550.027 -347.898 27.3911
7882 1 549.615 -346.581 27.5501
7880 2 551.383 -348.543 27.4653
7877 2 555.267 -348.397 28.3141
7879 1 552.949 -348.132 27.2054
3322 1 556.296 -344.884 25.995
3320 2 554.523 -343.331 27.5653
3321 1 555.019 -344.511 26.5351
7874 2 558.892 -348.846 28.4829
3327 1 559.472 -348.947 22.5916
3326 2 559.088 -347.568 23.0598
3325 1 559.248 -347.351 24.4563
3324 1 558.201 -346.009 24.9081
7869 1 560.046 -342.391 27.2749
7871 2 559.743 -344.998 28.4935
7870 1 560.656 -343.893 27.5278
7876 1 556.517 -348.498 27.7853
3323 2 556.776 -345.988 25.1315
7850 2 547.168 -341.69 26.3927
7848 1 548.982 -341.202 28.0811
7849 1 547.421 -341.249 27.8302
7865 2 556.169 -339.889 24.6975
7862 2 553.219 -341.723 23.5103
7861 1 551.931 -342.343 23.3091
7864 1 554.759 -340.098 23.9913
7863 1 553.532 -340.798 24.4471
7866 1 556.68 -341.029 25.3838
7867 1 558.106 -341.308 25.4213
7868 2 558.538 -342.147 26.8166
14175 1 485.954 -91.2114 24.3856
14171 2 481.814 -91.5973 26.7345
14172 1 483.298 -92.2205 26.6827
14173 1 483.954 -92.8741 25.1949
14170 1 481.54 -90.1761 26.2104
14169 1 480.618 -90.1647 24.8601
14174 2 484.73 -91.9194 24.0942
14101 1 502.537 -90.5662 21.5322
14168 2 481.113 -89.1963 23.6864
14167 1 480.246 -88.4141 22.7408
14177 2 486.09 -88.2215 23.5378
14176 1 486.037 -89.5605 24.5808
14179 1 484.231 -86.5201 24.8235
14178 1 484.816 -87.3996 23.5216
14180 2 484.647 -85.6118 25.6857
14182 1 485.351 -82.8575 25.6696
14181 1 484.273 -83.9916 25.6406
14183 2 486.847 -83.0392 24.6729
14185 1 486.702 -82.7069 21.9608
14184 1 486.825 -83.6643 23.2208
14218 1 490.68 -84.1444 22.7394
14219 2 491.524 -82.9603 22.5131
14222 2 495.337 -83.0779 23.0157
14221 1 494.091 -82.5752 23.7642
14223 1 495.325 -83.6715 21.5588
14143 1 482.295 -79.5706 22.0601
14141 2 484.761 -78.7364 23.0584
14142 1 483.851 -79.4089 21.8785
14140 1 486.314 -78.9265 23.0978
14139 1 486.909 -77.455 22.6258
14138 2 488.338 -77.3441 21.7715
14137 1 489.288 -76.4845 22.3491
14136 1 490.724 -76.8781 22.1268
14135 2 491.905 -77.3692 23.1832
14220 1 492.505 -82.5618 23.7024
14134 1 492.454 -76.4426 24.2414
14133 1 491.596 -75.2545 25.1388
14132 2 491.821 -73.698 25.3291
14129 2 493.098 -71.9713 21.9924
14130 1 491.858 -72.7526 22.8859
14131 1 491.677 -72.4857 24.2414
14128 1 494.559 -72.5644 22.1404
300 1 -159.736 -61.9676 24.6477
299 2 -158.501 -61.5778 25.1551
298 1 -157.974 -60.9768 26.4343
189 1 -153.052 -54.5121 25.0271
295 1 -157.537 -56.9697 26.6212
294 1 -157.565 -56.1086 27.7574
297 1 -157.281 -59.5541 26.5559
296 2 -158.142 -58.3162 26.454
188 2 -151.647 -54.6201 25.5447
187 1 -151.088 -55.8034 26.1634
185 2 -148.355 -56.658 26.8048
186 1 -149.705 -56.4137 25.6854
182 2 -146.6 -59.2992 28.0119
184 1 -148.296 -57.0601 28.3051
183 1 -147.994 -58.6676 28.4755
161 2 -141.504 -57.3719 24.1226
158 2 -144.188 -54.6576 23.076
159 1 -143.421 -55.9465 22.6359
160 1 -142.147 -56.4488 22.9428
162 1 -140.167 -57.0658 24.916
163 1 -139.761 -55.5369 25.6189
179 2 -143.008 -56.4955 28.1869
181 1 -145.116 -58.5858 28.4475
164 2 -138.41 -54.7458 25.1686
166 1 -136.43 -56.1265 26.5607
165 1 -137.059 -55.4768 25.1879
168 1 -134.197 -56.8334 27.6135
167 2 -135.278 -57.0941 26.5676
190 1 -154.365 -54.3278 26.2317
191 2 -154.541 -52.8318 26.6135
192 1 -154.904 -52.6083 28.2761
6993 1 -149.515 -49.7433 25.817
6994 1 -150.754 -50.0964 26.7216
6991 1 -147.494 -51.5258 26.2868
6992 2 -148.565 -50.989 25.2884
6990 1 -146.216 -51.8331 25.6958
6995 2 -150.502 -49.6079 28.1759
6980 2 -145.972 -47.6851 27.4224
157 1 -143.805 -53.5314 21.8998
155 2 -142.517 -51.4239 22.5769
156 1 -142.439 -52.7544 22.0233
154 1 -142.042 -50.0852 21.7362
6989 2 -145.11 -51.6372 26.5082
6988 1 -143.882 -52.2843 26.2686
6987 1 -142.284 -51.3549 26.3827
6986 2 -141.368 -51.3522 27.755
7037 2 -135.111 -49.4866 25.5369
7039 1 -134.613 -52.2133 26.8786
7036 1 -136.128 -48.5001 25.7037
7038 1 -135.238 -50.6802 26.7317
7040 2 -134.201 -52.6803 28.2226
7035 1 -136.714 -47.4942 26.876
6903 1 -131.867 -48.3911 27.9205
6902 2 -131.295 -49.867 28.0628
6901 1 -131.305 -50.5554 26.9168
6958 1 -148.737 -40.5769 22.7157
6953 2 -151.037 -43.5908 27.9654
6955 1 -150.135 -41.8793 26.0774
6954 1 -150.389 -42.2165 27.5178
6956 2 -148.724 -41.0194 25.5069
6957 1 -148.196 -41.1377 24.0367
6979 1 -145.915 -46.0891 26.742
6977 2 -144.123 -45.8496 24.7136
6976 1 -142.749 -45.5365 23.9697
6975 1 -142.065 -46.9698 24.1504
6974 2 -140.415 -47.2066 24.0688
6973 1 -139.839 -47.4288 22.7342
6939 1 -143.394 -40.6827 27.6801
6938 2 -142.566 -40.9977 26.4211
6936 1 -140.35 -41.8151 26.1509
6937 1 -141.291 -40.8357 26.7569
6935 2 -138.944 -41.9084 25.5568
6978 1 -144.414 -45.5166 26.0897
6972 1 -138.277 -47.4147 22.0696
6971 2 -137.623 -46.2173 21.7232
6934 1 -138.087 -40.7163 25.0122
6932 2 -135.361 -41.2429 24.2321
6931 1 -135.065 -42.915 24.2436
6930 1 -133.72 -43.4347 24.6682
6933 1 -136.698 -40.6634 24.1532
6929 2 -133.198 -43.3729 26.0271
6928 1 -132.212 -44.3247 26.6404