ITEM: TIMESTEP
0
ITEM: NUMBER OF ATOMS
20441
ITEM: BOX BOUNDS pp pp pp
0.0000000000000000e+00 2.0000000000000000e+02
0.0000000000000000e+00 2.0000000000000000e+02
0.0000000000000000e+00 3.0000000000000000e+02
ITEM: ATOMS id type x y z
5551 1 101.201 20.5911 5.08923
5552 2 101.366 21.774 6.05344
3419 2 150.262 42.5477 7.06627
3414 1 149.825 47.5036 6.00282
3413 2 149.786 48.6542 7.02935
3415 1 151.167 46.8664 5.58204
3418 1 151.283 42.8722 5.90258
3416 2 151.206 45.4535 4.95415
3417 1 151.942 44.289 5.68484
13291 1 48.8583 119.63 6.75067
13294 1 45.364 118.646 6.8928
13292 2 47.6647 119.522 5.72972
13293 1 46.1646 119.73 6.14151
13276 1 45.3478 123.749 5.17961
13274 2 43.2043 123.222 6.73271
13275 1 44.297 124.186 6.23478
13277 2 46.8702 123.742 5.50841
13278 1 47.726 125.042 5.46446
13279 1 48.2887 125.668 6.76754
12482 2 109.969 123.856 5.98804
12479 2 111.655 127.558 6.42274
12480 1 111.332 126.184 5.80509
12481 1 110.056 125.396 6.222
12483 1 110.363 122.831 7.09847
2167 1 163.298 132.67 6.44074
2165 2 165.617 133.955 5.95121
2166 1 164.849 132.684 6.42298
2164 1 166.648 134.673 6.87565
11417 2 40.4649 140.856 0.242789
11420 2 41.123 137.11 1.17626
11418 1 40.6882 139.789 1.34522
11419 1 40.1614 138.337 1.17105
2173 1 162.591 136.885 6.47738
2174 2 163.433 138.177 6.29009
2178 1 162.744 138.361 2.08269
2179 1 161.755 139.507 2.42945
2180 2 160.466 139.226 3.23599
2181 1 160.11 140.077 4.47171
2182 1 159.4 139.434 5.67444
2183 2 158.775 140.3 6.79878
2177 2 164.224 138.404 2.56914
2175 1 164.652 138.269 5.28019
2176 1 164.671 137.617 3.83659
2250 1 164.72 142.456 2.58418
2229 1 157.844 147.688 6.59469
2246 2 163.311 144.223 6.42796
2247 1 162.87 143.07 5.49644
2248 1 162.503 143.309 3.97828
2249 2 163.567 143.465 2.81708
2241 1 164.847 149.52 5.40515
2242 1 164.723 148.013 5.07487
2243 2 165.726 146.972 5.65442
2244 1 165.309 146.022 6.82766
2245 1 164.826 144.563 6.59764
2239 1 163.531 151.735 6.17455
2240 2 163.606 150.442 5.32613
5561 2 96.9682 21.3513 7.57167
5564 2 97.334 20.7523 11.3137
5562 1 97.7598 20.4917 8.62562
5563 1 97.1257 19.9925 9.96291
5565 1 98.5932 20.5302 12.2331
5566 1 98.6585 19.4307 13.3493
5597 2 93.4337 20.5254 14.1253
5666 2 103.109 18.894 12.7895
5667 1 103.678 20.1312 12.0601
5668 1 105.172 20.2261 11.6882
5598 1 92.8195 21.7665 13.4351
5558 2 98.5908 24.7548 8.67193
5599 1 93.5991 22.5205 12.3302
5600 2 93.1105 23.8938 11.7985
5602 1 93.1462 26.3986 12.9517
5699 2 95.4043 27.6358 9.10958
5557 1 99.46 24.1432 9.79671
5559 1 98.0162 23.8849 7.50409
5560 1 96.8112 22.9092 7.71426
5586 1 99.0852 25.6148 13.2861
5601 1 93.8488 25.2137 12.2017
5698 1 95.985 28.4607 10.2935
5700 1 96.0589 27.6995 7.71367
5588 2 96.9732 24.1283 14.1092
5587 1 98.4285 24.2372 13.5942
5553 1 102.268 21.6584 7.31075
5554 1 101.642 21.5502 8.73549
5555 2 101.753 22.6963 9.80871
5585 2 100.597 25.8904 13.5579
5556 1 100.997 24.0573 9.68135
5669 2 105.87 21.5823 11.7241
5674 1 107.001 24.5474 8.73382
5675 2 105.859 25.6058 8.83483
5676 1 104.729 25.4729 9.91346
5677 1 104.69 26.3524 11.2075
5678 2 105.416 25.891 12.5168
5679 1 104.665 25.5051 13.8051
5680 1 104.09 24.0824 14.0634
5584 1 101.121 27.2306 14.1942
5670 1 107.39 21.6951 11.9988
5671 1 108.142 23.0489 11.832
5672 2 108.813 23.4535 10.4698
5673 1 108.288 24.6593 9.6258
5696 2 96.0683 31.2125 9.92122
5694 1 98.8126 31.22 10.1255
5695 1 97.4109 31.912 10.3417
5697 1 95.4856 29.9202 10.6445
5693 2 99.6827 30.7242 11.3274
5691 1 98.7749 30.1135 13.8227
5692 1 99.147 29.696 12.3646
5618 2 100.145 34.5918 13.4081
5619 1 101.608 34.0552 13.6713
5620 1 101.892 32.5543 14.0061
3390 1 149.42 35.5842 14.1433
7863 1 163.975 33.7178 12.8638
7864 1 163.137 34.6003 11.9032
7862 2 163.327 32.9804 14.0797
6680 2 5.36698 42.3261 13.3624
6662 2 13.4046 36.8485 12.7245
6663 1 12.5037 37.8928 11.9779
6664 1 11.5332 38.8262 12.7817
6665 2 11.4881 40.3772 12.5588
6666 1 12.6398 41.3238 13.0223
6661 1 14.8577 37.1812 13.2721
6660 1 15.1812 38.4386 14.1933
3391 1 147.995 35.8539 13.5144
3392 2 147.733 37.0366 12.4985
3393 1 146.528 38.0425 12.6783
3394 1 146.714 39.6036 12.5654
3395 2 145.815 40.6004 13.3771
3396 1 146.365 41.9677 13.9055
3301 1 154.988 37.3144 11.9122
3302 2 153.979 38.1332 11.0977
3304 1 153.765 40.1998 9.3461
3305 2 154.451 41.6173 9.47201
3310 1 156.738 40.9049 12.8386
3367 1 151.697 41.0636 13.5015
3368 2 151.394 39.6832 14.1697
3303 1 154.437 38.8653 9.82266
3306 1 155.848 41.9408 8.81673
3311 2 156.953 41.3822 14.2675
3420 1 150.694 42.5497 8.578
3307 1 157.129 42.1787 9.6839
3308 2 157.935 40.9748 10.3347
3325 1 161.773 41.4875 12.2425
3309 1 157.954 40.6739 11.8808
7865 2 163.376 36.1437 11.8341
7866 1 162.351 37.1473 12.449
7867 1 162.244 37.3633 13.981
3326 2 162.013 41.3933 13.7544
3324 1 162.294 42.7135 11.445
7843 1 168.323 40.7302 13.3086
7844 2 166.909 40.0576 13.1264
7845 1 166.721 38.5012 13.0793
7846 1 167.142 37.5645 14.257
6677 2 6.26626 46.0181 12.9701
6678 1 6.00988 44.6795 12.1894
6679 1 4.93975 43.6438 12.6406
6675 1 8.761 46.0978 14.0665
6676 1 7.21641 46.0788 14.2077
3412 1 148.545 48.8371 7.92874
3408 1 148.635 47.6814 12.9309
3409 1 148.213 48.8489 11.9953
3410 2 147.892 48.588 10.5118
3411 1 148.676 49.3103 9.39019
3421 1 150.265 43.6599 9.61778
3427 1 152.699 46.5245 13.1894
3430 1 156.442 46.7378 13.8772
3422 2 150.675 45.1707 9.51971
3423 1 152.173 45.6515 9.55833
3424 1 152.587 47.1669 9.71428
3425 2 152.151 48.081 10.9413
3426 1 152.65 47.9076 12.4169
3428 2 153.992 45.6227 13.3331
3429 1 155.43 46.0842 12.8986
3443 2 156.886 48.1045 9.61179
3444 1 156.625 49.13 10.7418
3322 1 160.188 44.474 11.0189
7813 1 163.432 49.3208 12.7929
3320 2 160.246 45.7872 13.357
3323 2 161.368 43.5626 10.4899
3441 1 158.414 49.1378 7.53463
3442 1 158.212 48.1697 8.78288
3321 1 160.433 45.777 11.8299
7812 1 164.078 47.9441 12.3703
7814 2 162.32 49.4304 13.8537
7810 1 166.528 48.1423 13.6781
7811 2 165.343 47.2908 13.0692
3445 1 155.51 50.1849 10.6139
3446 2 155.403 51.3511 11.6106
3447 1 154.215 51.4618 12.5913
3448 1 154.44 51.8433 14.0673
3436 1 159.921 52.2351 12.3893
3437 2 159.627 52.4387 10.889
3439 1 159.718 51.4967 8.3288
3440 2 158.515 50.7281 7.64846
3435 1 158.77 52.2591 13.4422
3438 1 160.071 51.3756 9.85562
7801 1 164.193 53.5557 12.5001
7802 2 165.063 52.8686 13.5524
13350 1 55.9442 113.912 13.4546
13219 1 39.0145 120.678 8.45736
13297 1 42.8402 118.736 10.0566
13298 2 42.6001 117.985 11.3728
13299 1 42.31 118.797 12.6264
13220 2 38.5392 119.499 9.32867
13221 1 38.8396 119.48 10.8312
13222 1 37.7208 119.257 11.8678
13300 1 41.6124 118.214 13.8396
13223 2 37.9592 119.545 13.3649
13224 1 37.7348 120.962 13.9618
13288 1 47.8549 120.984 9.82637
13336 1 49.6391 118.09 12.0706
13337 2 49.9392 116.671 11.433
13289 2 49.1646 121.208 8.99625
13290 1 49.2539 120.986 7.43814
13295 2 44.1976 119.045 7.80446
13296 1 44.0847 118.454 9.21386
13335 1 49.2879 118.354 13.5989
13332 1 45.9279 119.136 13.7192
13333 1 46.5951 117.783 14.1221
13338 1 51.0906 115.743 11.9311
13345 1 53.169 118.82 14.0993
13346 2 54.4675 118.708 13.2543
13347 1 54.8091 117.374 12.524
13348 1 56.0798 116.542 12.8868
13349 2 56.0373 115.373 13.9167
13339 1 50.8403 114.691 13.0486
13340 2 51.8574 114.525 14.2051
12503 2 105.605 120.845 14.0758
12506 2 106.396 118.487 11.1481
12508 1 105.518 120.471 9.50307
12509 2 105.751 120.972 8.05918
12517 1 101.479 120.245 9.77103
12518 2 101.085 118.942 10.5032
12520 1 101.721 117.026 12.297
12521 2 101.602 117.038 13.841
12504 1 106.409 119.615 13.6189
12505 1 105.807 118.631 12.5888
12507 1 105.625 118.97 9.87483
12519 1 102.063 118.31 11.5142
12494 2 111.452 119.989 13.7886
12495 1 110.397 119.858 12.652
12496 1 110.341 120.887 11.497
2699 2 149.971 119.951 12.1847
2698 1 150.057 118.699 13.1261
2700 1 151.013 120.207 11.0779
13212 1 34.1314 121.679 12.9989
13210 1 33.0933 124.097 13.9859
13213 1 34.4083 121.982 11.4937
13201 1 32.0108 122.14 8.30762
13202 2 31.0851 123.244 8.84054
13203 1 31.54 124.177 9.97675
13204 1 31.5865 125.709 9.76714
13205 2 31.8684 126.672 10.9443
13206 1 33.317 127.191 11.2174
13207 1 33.9019 127.247 12.6623
13208 2 34.831 126.103 13.2158
13209 1 34.3261 125.046 14.2668
13211 2 33.1697 122.522 13.9334
13216 1 37.2497 123.711 9.1701
13270 1 40.8709 123.201 11.4168
13214 2 35.7178 122.671 11.069
13215 1 35.8388 123.429 9.74822
13217 2 37.7653 123.061 7.82637
13218 1 37.9853 121.508 7.63127
13268 2 41.572 122.651 13.9616
13271 2 41.534 124.062 10.307
13269 1 41.7529 122.478 12.4502
13272 1 41.6124 123.589 8.84563
13235 2 41.6338 128.209 12.536
13234 1 41.4408 126.781 13.1497
13273 1 42.933 123.094 8.2374
13282 1 45.8714 126.372 9.42961
13285 1 45.3131 123.48 11.5983
13280 2 47.5987 126.907 7.41657
13281 1 47.2375 126.918 8.91925
13283 2 45.6338 126.079 10.9421
13284 1 46.1649 124.78 11.6191
13286 2 45.7517 122.108 10.9764
13287 1 46.6675 121.954 9.74785
12500 2 107.072 124.146 12.8875
12511 1 105.047 123.511 7.40425
12512 2 104.633 124.702 8.35495
12514 1 102.452 123.886 9.80424
12515 2 102.189 122.664 10.7076
12533 2 104.524 127.574 13.1135
12501 1 106.023 123.475 13.8229
12510 1 106.13 122.457 7.79644
12513 1 103.876 124.493 9.71898
12516 1 101.098 121.64 10.3375
12531 1 102.303 126.025 13.0541
12532 1 102.967 127.422 13.1458
12530 2 101.638 125.322 14.2659
12488 2 112.227 125.225 11.7114
12497 2 109.008 121.486 11.0171
12478 1 112.755 127.706 7.50895
12484 1 111.867 122.469 7.36043
12485 2 112.534 122.661 8.76061
12486 1 112.918 124.065 9.33746
12487 1 111.919 124.858 10.2385
12489 1 112.063 124.197 12.8484
12490 1 111.104 124.452 14.0461
12498 1 108.726 123.004 11.0798
12499 1 107.349 123.58 11.4646
12472 1 115.092 128.155 14.0674
13237 1 39.0072 129.195 12.3127
13236 1 40.4882 128.985 11.7511
13238 2 38.5402 130.355 13.3003
12473 2 114.234 129.35 13.4764
12474 1 113.123 129.159 12.4012
12475 1 113.375 129.534 10.9328
12476 2 112.423 129.03 9.83828
12477 1 112.871 128.996 8.35624
2171 2 160.595 135.562 7.64135
2155 1 162.773 132.503 13.6558
2156 2 163.148 131.019 13.3503
2157 1 163.723 130.61 11.961
2168 2 162.48 132.306 7.72487
2169 1 162.013 133.41 8.73857
2170 1 160.694 134.266 8.54894
2153 2 164.576 134.465 14.0364
2152 1 166.098 134.411 14.2198
2158 1 165.235 130.782 11.6241
2159 2 165.673 131.632 10.4081
2160 1 166.359 133.002 10.5971
2161 1 165.628 134.322 10.2355
2162 2 166.387 135.452 9.4962
2163 1 166.187 135.703 7.97048
2172 1 161.649 136.71 7.66821
2112 1 163.793 138.813 12.1228
2113 1 162.889 137.679 12.6515
2114 2 161.896 137.922 13.8103
2184 1 159.122 140.079 8.30728
2185 1 158.543 138.891 9.16929
2186 2 157.277 139.019 10.0874
2187 1 157.31 139.751 11.4542
2188 1 157.419 139.004 12.7984
2189 2 157.333 139.793 14.1205
2199 1 162.064 142.098 14.2509
2200 1 160.803 142.064 13.3609
2201 2 160.792 141.447 11.9238
2202 1 161.662 141.968 10.7296
2110 1 166.221 139.799 13.0798
2111 2 165.348 138.751 12.2636
2151 1 166.912 135.715 14.2789
2216 2 154.567 143.084 13.4772
2217 1 155.049 143.83 12.211
2218 1 156.399 143.449 11.5583
2224 1 155.834 149.247 11.6947
2225 2 154.781 148.61 10.7259
2226 1 154.852 148.887 9.19284
2227 1 155.681 147.99 8.22741
2228 2 156.927 148.572 7.50011
2223 1 156.806 148.357 12.5283
2219 2 157.21 144.454 10.7322
2203 1 161.476 143.392 10.1413
2204 2 162.585 144.486 10.2861
2205 1 162.984 145.16 11.6345
2206 1 162.096 146.224 12.2987
2207 2 162.599 147.052 13.4934
2220 1 158.296 145.308 11.4093
2221 1 158.467 146.789 11.0211
2222 2 158.24 147.973 12.014
2230 1 159.082 146.91 7.15667
2231 2 160.512 147.512 7.15202
2232 1 161.168 147.909 8.48087
2233 1 162.682 148.16 8.55731
2234 2 163.406 148.839 9.76873
2235 1 162.985 150.234 10.3495
2236 1 163.515 151.561 9.72649
2237 2 162.666 152.413 8.6993
2238 1 162.387 151.947 7.21567
5596 1 92.8222 19.9862 15.4397
5567 2 97.9545 19.5885 14.7284
5570 2 98.6516 20.0324 18.6892
5593 1 94.1395 21.1444 18.8253
5594 2 93.353 20.0089 18.0878
5568 1 98.736 19.5341 16.0493
5569 1 97.9661 19.5961 17.3809
5595 1 93.7179 19.5597 16.6333
5571 1 97.99 21.1161 19.5601
5665 1 102.887 18.9112 14.3247
5651 2 102.741 20.8548 19.84
5652 1 103.113 19.5683 20.6287
5653 1 104.606 19.1683 20.8485
5662 1 105.814 20.0359 16.4036
5663 2 104.488 19.2441 16.4718
5664 1 103.994 18.3924 15.2845
5661 1 105.958 21.3428 17.1976
5603 2 92.8335 26.3631 14.4819
5579 2 99.6839 28.4132 20.2995
5590 1 95.2809 23.4563 16.1081
5591 2 95.2399 23.3032 17.6513
5605 1 93.229 27.3798 16.9237
5687 2 97.4011 26.5197 17.3889
5572 1 98.6112 21.609 20.8719
5589 1 96.5789 23.2074 15.2981
5592 1 94.052 22.64 18.378
5604 1 93.7369 27.067 15.4967
5686 1 98.4913 25.5153 18.0174
5688 1 97.6489 27.9345 16.7384
5685 1 99.6366 24.8964 17.1751
5689 1 97.3787 28.1883 15.2277
5573 2 98.495 23.0996 21.2607
5582 2 101.421 28.4371 16.6216
5581 1 101.291 28.1144 18.1405
5583 1 101.817 27.351 15.5875
5645 2 105.175 27.3157 17.986
5646 1 105.123 25.8632 18.5584
5647 1 103.785 25.183 18.9166
5648 2 103.476 24.6969 20.3388
5649 1 103.659 23.2232 20.7156
5650 1 102.515 22.1982 20.5696
5681 2 103.468 23.7825 15.4326
5682 1 102.46 22.6258 15.7268
5683 1 100.933 22.8246 16.0765
5684 2 100.342 23.542 17.3575
5635 1 107.631 26.3976 21.3925
5633 2 109.06 28.3398 20.1205
5634 1 108.929 26.8925 20.6883
5658 1 108.233 22.1212 20.1771
5659 1 107.428 22.6572 18.9773
5660 2 107.324 21.8454 17.6733
6608 2 7.0086 31.4826 17.8088
6706 1 6.93124 34.5743 20.5598
6601 1 11.6563 29.3137 17.4266
6602 2 12.0487 30.7541 17.0749
6603 1 11.4569 31.4348 15.8274
6604 1 10.8312 32.8495 15.9211
6605 2 9.47414 33.1588 15.218
6606 1 8.12896 33.1917 16.0132
6607 1 7.34369 31.8823 16.3453
6609 1 7.88781 30.4633 18.583
6610 1 7.95342 30.485 20.1346
6611 2 9.23913 30.0623 20.9101
6704 2 9.27909 34.955 19.3
6705 1 8.42967 34.2841 20.3895
6612 1 10.3089 31.1129 21.3529
5607 1 92.4814 29.9867 17.3744
5608 1 92.281 30.6982 15.9743
5690 2 97.4955 29.5807 14.5384
5606 2 93.4808 28.7795 17.5665
5609 2 93.0184 32.0115 15.5745
5612 2 96.2998 32.3118 17.3207
5615 2 98.3529 35.4005 17.1049
5610 1 94.5387 32.0057 15.2364
5611 1 95.5388 32.8574 16.0525
5613 1 97.7919 32.6951 17.5895
5614 1 98.2561 34.1388 18.0723
5616 1 99.3506 35.498 15.9082
5617 1 99.0559 34.7913 14.5319
5643 1 104.601 28.7306 20.3341
5644 1 104.939 28.6503 18.8196
5580 1 100.544 29.0261 19.1538
5621 2 102.457 32.0928 15.37
5622 1 101.636 32.2563 16.6914
5623 1 102.32 32.3016 18.0751
5624 2 102.747 33.6488 18.732
5625 1 104.237 34.1042 18.7134
5626 1 104.906 34.6376 17.4
5627 2 106.327 34.1765 16.9725
5628 1 106.605 32.8164 16.1968
5629 1 106.844 31.4114 16.8958
5642 2 104.024 30.0226 20.9585
5632 1 108.857 28.636 18.5982
5630 2 107.883 31.1631 18.0605
5631 1 109.003 30.0711 17.9795
3389 2 149.594 34.8862 15.5468
3344 2 155.313 35.2261 18.3561
3346 1 154.164 33.7703 20.3106
3387 1 150.116 35.3688 18.1933
3388 1 150.539 35.4609 16.6768
3345 1 155.411 34.1361 19.472
7861 1 163.699 33.3453 15.5469
7873 1 159.436 35.3078 20.9733
7871 2 160.138 35.3082 18.3816
7856 2 165.114 33.1337 21.3759
7857 1 166.076 32.8966 20.1729
7858 1 165.741 33.385 18.7353
7859 2 165.075 32.4591 17.6844
7860 1 165.023 32.8624 16.201
6681 1 4.90049 42.0303 14.8154
6682 1 5.66181 42.5977 16.0394
6692 2 7.12821 41.3633 20.2116
6658 1 13.9748 37.662 16.6049
6667 1 12.5504 42.108 14.3389
6693 1 8.24758 41.8234 19.2236
6694 1 8.68481 40.9243 18.055
6695 2 10.0606 41.1242 17.3854
6696 1 11.2801 40.2274 17.7734
6697 1 12.4662 40.6858 18.7303
6698 2 12.3234 40.9951 20.2724
6699 1 12.0271 39.8878 21.314
6701 2 10.0622 38.0487 21.3722
6702 1 9.8683 37.4676 19.957
6703 1 10.321 36.0285 19.6578
6651 1 17.8947 41.4412 20.4871
6652 1 18.8777 40.2276 20.2129
6653 2 18.3894 38.7333 20.0942
6654 1 17.2473 38.308 19.1391
6655 1 16.4856 36.9773 19.3342
6656 2 14.9555 36.8724 19.0309
6657 1 14.4446 36.5436 17.5885
6659 2 15.0079 38.5111 15.7562
3377 2 142.703 38.2043 19.3266
3378 1 142.941 39.4066 18.3452
3371 2 148.089 39.2411 16.5541
3372 1 147.003 38.1038 16.4691
3373 1 146.802 37.056 17.5776
3374 2 145.527 36.2255 17.7257
3375 1 144.687 36.3337 19.0298
3376 1 143.185 36.7589 18.9672
3379 1 143.625 40.7161 18.8381
3380 2 145.154 40.9715 18.6381
3381 1 146.173 40.9731 19.8307
3382 1 146.722 39.6459 20.4646
3383 2 148.241 39.4145 20.6921
3384 1 148.902 37.9987 20.6368
3369 1 149.955 39.3666 14.6056
3370 1 149.56 39.0907 16.0676
3397 1 145.606 42.7353 15.0375
3366 1 152.092 42.3172 14.3568
3337 1 154.671 41.5586 17.4607
3338 2 153.695 40.3426 17.4875
3339 1 153.195 39.621 18.7871
3340 1 154.027 39.475 20.1122
3341 2 154.643 38.1373 20.5242
3342 1 155.919 37.5574 19.8365
3343 1 155.888 36.6989 18.4991
3361 1 150.835 42.255 20.0711
3385 1 150.098 37.7305 19.6694
3386 2 150.682 36.3034 19.3368
3333 1 156.985 42.1291 20.4676
3328 1 161.054 41.1028 16.249
3329 2 160.416 40.0981 17.2423
3331 1 158.546 40.3641 19.1958
3332 2 158.309 41.7486 19.8291
3330 1 158.934 40.2325 17.7068
7851 1 163.576 37.2525 19.7231
7852 1 163.699 37.3026 21.2504
7868 2 161.003 36.8837 14.7523
7869 1 161.169 36.2924 16.148
7870 1 159.949 35.9359 16.9963
7872 1 159.646 36.0523 19.6201
7902 1 162.696 41.5419 20.5089
3327 1 160.904 40.9464 14.714
7903 1 161.835 40.5392 21.373
7836 1 165.102 42.0931 15.9736
7837 1 165.001 41.1895 17.2646
7838 2 166.203 41.0009 18.2831
7839 1 167.595 40.4283 17.8674
7840 1 168.699 41.3426 17.2505
7841 2 169.301 41.0429 15.8444
7842 1 168.656 41.6311 14.5399
7847 2 166.1 36.8078 15.0851
7848 1 166.106 36.9149 16.6069
7849 1 164.797 37.1076 17.3735
7850 2 164.84 37.3016 18.8823
7949 2 169.981 37.4302 21.0838
7950 1 168.719 37.2723 20.2331
6683 2 4.92024 43.4401 17.0954
6684 1 5.54878 44.7333 17.6356
6685 1 5.38521 45.1121 19.1203
6686 2 6.34452 46.1253 19.802
6668 2 13.7637 42.9067 14.8601
6669 1 13.9188 43.211 16.372
6670 1 13.5842 44.6141 16.9637
6671 2 12.33 44.8776 17.8957
6672 1 10.8443 44.9911 17.3658
6673 1 10.4315 45.8517 16.1384
6674 2 9.63317 45.2176 14.9809
6687 1 7.60082 45.6377 20.5916
3400 1 146.597 45.2516 17.9396
3406 1 149.769 48.5928 15.2451
3398 2 145.969 44.1932 15.4721
3399 1 146.956 44.4635 16.6453
3401 2 147.222 46.6551 18.2273
3402 1 148.455 46.8941 19.1946
3407 2 148.635 47.8348 14.4739
3403 1 149.964 46.9743 18.7077
3364 1 150.279 42.9142 16.2982
3334 1 156.256 43.417 20.0276
3335 2 154.776 43.3933 19.5349
3336 1 154.355 42.9725 18.0725
3362 2 150.019 42.9208 18.9526
3363 1 150.704 43.4218 17.6688
3365 2 151.034 43.294 15.0021
3404 2 150.547 48.1035 17.7914
3405 1 150.687 47.8624 16.2639
3431 2 156.246 48.1165 14.5848
3312 1 156.918 42.8763 14.6199
3360 1 151.208 42.9718 21.4036
7901 2 162.174 42.929 20.0378
3432 1 157.43 48.886 15.1996
3313 1 157.926 43.4511 15.6055
3316 1 159.891 45.3231 17.7878
3319 1 161.47 45.7437 14.3051
7816 1 161.812 49.3351 16.4553
7819 1 160.758 49.8515 20.322
7900 1 162.163 44.1544 21.012
3314 2 157.529 44.5076 16.6679
3315 1 158.473 45.6231 17.2175
3317 2 161.193 45.6185 16.989
3433 1 158.354 49.7237 14.3091
3318 1 161.466 44.9527 15.6126
7815 1 162.591 49.9408 15.2836
7817 2 161.939 49.8572 17.8891
7818 1 160.674 49.9566 18.7805
7807 1 166.843 49.856 17.1073
7828 1 165.825 48.884 21.007
7831 1 167.283 45.534 20.0192
7834 1 165.815 44.6094 16.775
7835 2 164.941 43.6455 15.9387
7808 2 166.227 48.6904 16.3357
7809 1 166.982 48.0001 15.1638
7827 1 164.4 48.2001 21.1228
7829 2 167.203 48.0989 21.021
7830 1 167.604 47.0738 19.9103
7832 2 165.953 44.8684 19.4832
7833 1 165.282 45.2087 18.103
3449 2 153.533 51.2716 15.1728
3450 1 154.061 51.134 16.6059
3434 2 158.652 51.2182 14.5995
7820 2 160.529 51.1075 21.2145
7804 1 166.476 53.1169 15.8017
7803 1 165.238 53.4871 14.9472
7805 2 166.346 52.5326 17.2542
7806 1 165.949 51.044 17.5343
2984 2 74.0267 99.1505 20.2837
2985 1 75.4339 98.932 20.8643
2988 1 77.6778 96.3866 20.3043
2993 2 77.2291 99.3652 17.1979
2989 1 79.1218 96.9971 20.4057
2990 2 79.4399 98.4628 19.9255
2991 1 79.69 98.8599 18.4059
2992 1 78.642 98.6959 17.2201
2885 2 75.0019 106.746 20.2825
2900 2 78.4917 103.041 19.3012
2901 1 77.337 102.396 20.088
2982 1 72.5798 101.232 21.3077
2983 1 73.4103 100.578 20.1528
2994 1 76.8801 100.478 16.204
2995 1 75.7606 101.49 16.5469
2996 2 75.5662 102.779 15.7101
2997 1 76.1897 104.132 16.1458
2998 1 77.3438 104.753 15.3202
2999 2 78.4819 105.534 16.0015
2902 1 76.5941 103.214 21.1655
2897 2 81.3822 104.466 21.033
2898 1 80.8179 103.025 20.8007
2899 1 79.9964 102.647 19.514
3000 1 79.9342 105.051 15.8892
13313 2 40.4995 112.815 18.7114
13316 2 41.0618 113.25 14.8338
13312 1 41.6209 112.298 19.6557
13314 1 40.3091 112.222 17.2913
13315 1 40.0768 113.172 16.0703
13317 1 42.6141 113.537 14.9813
13310 2 43.1633 113.772 21.3199
13311 1 42.8971 113.137 19.9334
2886 1 75.6266 107.76 19.3009
2887 1 77.1642 107.815 19.1047
2888 2 77.9288 109.13 18.7255
2889 1 78.0965 110.337 19.7198
2890 1 79.2309 110.391 20.7871
2555 2 145.576 114.057 19.5733
2556 1 145.141 113.202 20.8185
13225 1 37.9627 121.28 15.4512
13226 2 36.8213 121.227 16.5175
13307 2 42.06 117.506 21.2595
13303 1 40.0508 117.875 16.9696
13306 1 40.5708 117.628 20.8413
13301 2 41.9107 118.803 15.2406
13304 2 39.5258 118.001 18.3975
13302 1 40.8394 119.036 16.3214
13305 1 40.0708 117.064 19.4885
13318 1 43.1969 114.944 15.3006
13321 1 44.6724 117.489 17.8559
13324 1 48.0041 119.066 19.5401
13327 1 49.7429 120.906 16.8668
13334 2 48.1362 117.617 14.4167
13259 2 43.8707 121.377 21.3115
13319 2 43.4029 115.413 16.7646
13320 1 44.6909 116.081 17.2099
13322 2 45.6773 117.878 18.9607
13323 1 47.1506 118.175 18.6293
13325 2 49.4539 119.426 19.1231
13326 1 49.7856 120.779 18.4267
13331 2 45.5933 120.234 14.7531
13341 1 51.5496 114.958 15.6927
13342 1 51.5784 116.45 16.2051
13343 2 52.9038 117.27 16.3901
13344 1 53.1495 118.65 15.6663
12451 1 101.28 119.601 21.2585
12452 2 101.416 120.972 20.5902
12523 1 102.706 117.074 16.3034
12524 2 103.288 118.337 17.062
12526 1 101.629 120.454 16.4002
12453 1 102.786 121.42 20.0826
12522 1 102.84 116.843 14.7647
12525 1 103.039 119.826 16.6266
12569 2 106.732 120.705 20.9838
12572 2 107.72 118.313 18.4504
12493 1 111.063 120.649 15.1598
12570 1 108.062 120.404 20.2674
12571 1 108.083 119.823 18.7986
12573 1 108.539 117.096 19.011
12574 1 108.252 116.497 20.426
2551 1 146.869 118.648 17.6402
2552 2 145.782 117.882 18.4001
2553 1 145.643 116.36 18.2213
2554 1 145.047 115.492 19.3403
2562 1 149.265 116.351 20.0151
2697 1 151.026 118.628 14.356
2563 1 150.073 115.686 18.8365
2564 2 151.453 116.24 18.3725
2565 1 152.777 115.76 19.022
2566 1 153.346 116.477 20.266
2674 1 156.871 120.383 16.0414
2675 2 155.843 119.249 16.4267
2676 1 155.641 118.736 17.9005
2677 1 156.784 118.055 18.7126
2678 2 156.991 118.391 20.2007
2694 1 151.436 121.36 17.0861
2695 1 151.681 119.927 16.5991
2696 2 150.633 119.199 15.7438
2662 1 150.32 121.241 21.1785
2679 1 158.367 118.835 20.7364
13227 1 36.0709 122.507 16.9843
13231 1 38.9973 125.122 15.8637
13264 1 42.1966 124.977 18.2044
13228 1 36.692 123.506 18.0047
13229 2 36.9032 125.003 17.6047
13232 2 39.3754 126.113 14.7684
13230 1 38.2979 125.568 17.1806
13233 1 40.8498 126.555 14.567
13263 1 42.555 125.222 19.6829
13266 1 42.6343 123.053 16.3912
13267 1 42.7543 123.08 14.8535
13262 2 41.6719 124.615 20.8181
13260 1 42.4472 122.025 21.2792
13330 1 46.484 121.474 14.8583
13247 2 44.3605 128.535 21.2364
13253 2 48.7459 126.824 19.6725
13256 2 46.7397 123.51 19.418
13265 2 43.1516 124.235 17.2398
13252 1 49.2194 126.524 21.1407
13254 1 48.0723 125.727 18.7782
13255 1 46.7391 125.022 19.1693
13257 1 45.9734 122.868 20.5593
13258 1 44.9588 121.741 20.264
13328 2 48.8056 121.921 16.1353
13329 1 47.2596 121.735 16.1306
12559 1 99.4981 127.817 20.9215
12560 2 100.183 126.468 20.5268
12454 1 103.003 122.8 19.4476
12455 2 104.427 123.283 19.1287
12527 2 101.41 121.472 15.2626
12529 1 102.198 123.972 14.7633
12535 1 105.711 127.223 15.6032
12536 2 104.694 126.673 16.6768
12538 1 103.542 127.758 18.9006
12456 1 104.995 124.486 19.8929
12457 1 106.387 124.522 20.5195
12502 1 106.304 122.131 14.5544
12528 1 101.324 122.989 15.5544
12534 1 105.295 128.126 14.3656
12537 1 103.602 127.58 17.3642
12464 2 111.363 125.367 19.8667
12491 2 110.586 123.332 15.0225
12463 1 111.71 126.6 20.834
12465 1 110 125.215 19.044
12466 1 109.583 125.995 17.7132
12467 2 110.13 127.402 17.2355
12468 1 111.339 127.508 16.2734
12469 1 112.813 127.57 16.7988
12470 2 113.977 126.701 16.1836
12492 1 111.458 122.119 15.5163
12471 1 114.47 126.839 14.6873
2669 2 155.747 122.572 21.2695
2670 1 155.914 122.284 19.7893
2688 1 156.426 126.501 19.7521
2689 1 155.578 126.243 18.4782
2690 2 154.122 125.716 18.5711
2691 1 153.606 124.66 17.5574
2692 1 152.461 123.687 17.9285
2693 2 152.598 122.172 17.6644
2673 1 156.643 121.883 16.4158
2671 1 157.295 122.32 19.0882
2672 2 157.478 122.598 17.5481
2686 1 158.81 126.136 21.0606
2687 2 157.965 126.234 19.7444
13240 1 39.6088 130.106 15.8312
13241 2 40.8814 130.302 16.7188
13239 1 39.3813 130.919 14.511
13242 1 42.304 129.872 16.2418
13244 2 44.6198 129.18 17.3663
13243 1 43.1451 128.851 17.0214
13245 1 45.2538 128.737 18.7084
13246 1 44.9045 129.402 20.0719
12540 1 105.812 128.662 20.0541
12539 2 104.321 128.873 19.6368
12541 1 107.042 129.121 19.1785
12544 1 106.915 132.27 21.0294
12558 1 100.277 129.151 20.8262
12542 2 107.416 130.633 18.9021
12543 1 107.923 131.595 20.0248
2117 2 160.634 135.635 16.9248
2119 1 159.629 134.701 19.2403
2120 2 158.182 134.633 19.793
2154 1 163.662 133.353 14.5895
2121 1 157.843 135.089 21.2345
2101 1 166.404 131.979 17.4206
2102 2 166.093 133.094 18.4246
2103 1 165.037 134.163 18.1045
2104 1 165.38 135.638 18.2836
2118 1 160.084 135.876 18.3411
2115 1 161.266 136.746 14.5706
2116 1 161.076 136.839 16.0885
2125 1 158.15 139.162 20.719
2126 2 159.635 139.012 21.2288
2138 2 162.84 136.38 21.3773
2140 1 163.664 138.882 20.7991
2190 1 158.237 139.427 15.3085
2191 1 158.449 140.402 16.475
2192 2 159.793 140.47 17.2152
2193 1 160.107 141.666 18.136
2194 1 161.479 141.787 18.8371
2139 1 163.925 137.496 21.4147
2105 2 164.707 136.737 17.4648
2106 1 165.329 138.126 17.4557
2107 1 164.885 139.207 16.492
2108 2 165.962 140.059 15.7933
2109 1 165.733 140.583 14.3574
2141 2 164.409 140.138 21.3114
2142 1 165.804 140.531 20.7384
2145 1 168.905 138.623 20.481
2146 1 168.617 137.388 19.6083
2147 2 169.574 136.976 18.4653
2148 1 169.131 137.028 16.9818
2149 1 168.835 135.722 16.2031
2150 2 168.402 135.741 14.7075
2213 2 156.686 144.423 16.5032
2214 1 155.789 143.344 15.8612
2215 1 154.668 143.745 14.8751
2195 2 162.385 143.03 18.6334
2196 1 163.561 142.97 17.5859
2197 1 163.491 143.524 16.0958
2198 2 162.282 143.331 15.1182
2208 1 161.591 147.77 14.4221
2209 1 161.057 147.08 15.7142
2210 2 159.539 146.847 15.9526
2211 1 158.786 145.633 15.3239
2212 1 158.201 144.498 16.1871
5654 2 105.283 19.2533 22.2607
5655 1 105.916 20.585 22.7903
5656 1 107.379 20.9827 22.4534
5574 1 98.8998 23.6043 22.6707
5576 2 100.012 26.0222 23.2111
5578 1 100.152 28.3442 21.7858
5575 1 100.143 24.5127 22.8788
5577 1 100.814 27.0633 22.3791
5637 1 106.504 27.2204 23.7008
5636 2 107.503 26.3114 22.9378
5657 2 107.681 22.2468 21.6138
6707 2 6.27396 34.3603 21.9441
6708 1 5.91475 35.5683 22.8438
6719 2 4.75589 34.6472 27.3582
6720 1 6.29969 34.5703 27.3298
6721 1 7.06772 33.3973 26.6301
6613 1 10.6212 31.4015 22.8526
6614 2 10.278 32.7705 23.4998
6615 1 11.3628 33.8311 23.8018
6616 1 10.9564 35.3015 23.9868
6722 2 8.34524 32.7386 27.2586
6723 1 9.64864 33.5715 27.5788
6643 1 17.4004 35.0634 23.8567
6644 2 16.0959 35.3953 23.0299
6749 2 15.1002 33.7028 27.6846
6750 1 14.8825 35.1487 27.2247
5638 1 106.956 28.6143 24.2439
5639 2 106.096 29.8918 24.0383
5640 1 106.147 30.6867 22.6907
5641 1 104.839 31.0284 21.8751
3347 2 154.267 33.662 21.8474
3348 1 153.278 34.4205 22.7865
7854 1 163.988 35.1012 22.8989
7855 1 165.251 34.3879 22.2828
6710 2 7.08182 37.6828 23.9405
6713 2 5.94448 40.4032 26.3697
6714 1 4.43838 40.49 25.8562
6715 1 3.59337 39.2275 25.3821
6716 2 2.8863 38.2203 26.3681
6717 1 3.67681 37.1282 27.1651
6718 1 3.98401 35.7311 26.5563
6709 1 6.95684 36.1747 23.8045
6712 1 7.12115 39.8505 25.4932
6617 2 11.496 36.1416 25.1603
6618 1 11.0087 37.5722 25.3848
6619 1 11.9908 38.7287 25.5335
6620 2 11.4987 40.1864 25.6428
6621 1 12.521 41.3437 25.7168
6622 1 12.8687 42.0145 27.0688
6690 1 7.94537 42.7208 22.539
6691 1 7.19133 41.5551 21.7871
6700 1 10.5718 39.4738 21.6333
6711 1 7.34394 38.3294 25.3075
6623 2 14.336 42.302 27.4583
6630 1 17.768 39.1703 28.1599
6631 1 18.3419 39.6775 26.794
6632 2 18.6613 41.188 26.4954
6633 1 20.0686 41.6007 25.9713
6640 1 20.3526 37.9193 23.9897
6641 2 19.5948 36.6479 23.5537
6642 1 18.3966 36.1516 24.3928
6645 1 15.0283 36.4263 23.5108
6646 1 14.953 37.8479 22.9237
6647 2 15.4475 39.068 23.7216
6648 1 15.6182 40.421 23.0327
6649 1 16.9849 41.1265 23.0855
6650 2 17.5608 42.001 21.9231
6634 1 21.2478 42.0544 26.9282
6635 2 22.1541 41.0537 27.7701
6636 1 22.9468 39.8669 27.1355
6637 1 22.2934 38.4558 27.0119
6638 2 22.4806 37.559 25.7414
6639 1 21.8829 37.9072 24.3115
3349 1 153.64 35.7928 23.418
3350 2 154.247 35.9092 24.8287
3351 1 154.545 37.2837 25.4044
3352 1 154.547 37.5203 26.9298
3353 2 154.336 38.9577 27.5033
3354 1 152.915 39.5379 27.8983
3355 1 151.665 39.5241 26.9331
3356 2 151.349 40.6907 25.965
3357 1 151.711 40.5873 24.4524
3358 1 150.734 41.0363 23.3416
7879 1 156.172 40.6188 23.9339
7880 2 155.512 41.8043 24.6818
3359 2 150.665 42.5195 22.8029
7853 2 163.107 36.1815 22.1491
7874 2 158.675 35.9294 22.2019
7875 1 158.824 37.4217 22.6264
7876 1 159.004 37.8471 24.106
7877 2 158.06 38.8794 24.8122
7878 1 157.653 40.2583 24.1965
7904 2 161.593 40.6683 22.9282
7905 1 162.712 40.8543 23.9881
7906 1 163.452 42.2221 24.2045
7914 1 163.675 38.7901 26.9618
7915 1 164.064 39.6826 28.1722
7916 2 163.665 41.1755 28.1973
7907 2 165.004 42.3157 24.2933
7908 1 165.985 41.9826 23.0827
7909 1 166.262 40.5127 22.5594
7910 2 166.976 39.4268 23.4232
7911 1 166.178 38.2735 24.0754
7912 1 165.998 38.1969 25.6013
7913 2 164.651 37.7749 26.2687
7929 1 171.001 42.5942 28.2155
7930 1 170.814 41.4267 27.1326
7931 2 169.418 40.8376 26.6248
7932 1 168.151 40.678 27.5288
7944 1 170.825 36.175 27.4758
7945 1 170.458 37.0723 26.2765