# LAMMPS data file for GO/PEEK/iC system
# Generated by Python script

20441 atoms
25220 bonds
24958 angles
0 dihedrals
0 impropers

7 atom types
4 bond types
3 angle types
0 dihedral types
0 improper types

0.0 200.0 xlo xhi
0.0 200.0 ylo yhi
0.0 300.0 zlo zhi

Masses

1 76.09   # Ether-linked phenyl bead (PEEK)
2 90.08   # Ketone-linked phenyl bead (PEEK)
3 60.05   # GO carbon bead
4 76.05   # GO oxygen-containing group bead
5 162.14  # 3-linked b-D-galactopyranose bead (iC)
6 242.20  # 4-linked a-D-galactopyranose with sulfate bead (iC)
7 76.05   # Reactive site bead

Atoms  # full atom style: atom-ID molecule-ID atom-type q x y z

1 1 1 0.0 17.128 168.725 186.439
2 1 2 0.0 16.363 170.050 186.439
3 1 1 0.0 17.893 170.050 186.439
4 1 1 0.0 17.605 168.270 186.326
5 1 2 0.0 16.840 169.595 186.326
6 1 1 0.0 18.370 169.595 186.326
7 1 1 0.0 17.550 168.697 186.665
8 1 2 0.0 16.785 170.022 186.665
9 1 1 0.0 18.315 170.022 186.665
10 1 1 0.0 18.032 168.807 186.494
11 1 2 0.0 17.267 170.132 186.494
12 1 1 0.0 18.797 170.132 186.494
13 1 1 0.0 18.240 168.520 186.739
14 1 2 0.0 17.475 169.845 186.739
15 1 1 0.0 19.005 169.845 186.739
16 1 1 0.0 18.640 169.016 186.754
17 1 2 0.0 17.875 170.341 186.754
18 1 1 0.0 19.405 170.341 186.754
19 1 1 0.0 18.823 168.702 186.778
20 1 2 0.0 18.058 170.027 186.778
21 1 1 0.0 19.588 170.027 186.778
22 1 1 0.0 18.944 168.540 186.804
23 1 2 0.0 18.179 169.865 186.804
24 1 1 0.0 19.709 169.865 186.804
25 1 1 0.0 19.045 168.182 186.728
26 1 2 0.0 18.280 169.508 186.728
27 1 1 0.0 19.810 169.508 186.728
28 1 1 0.0 19.246 168.581 187.186
29 1 2 0.0 18.481 169.906 187.186
30 1 1 0.0 20.011 169.906 187.186
31 1 1 0.0 19.450 168.605 186.975
32 1 2 0.0 18.685 169.930 186.975
33 1 1 0.0 20.215 169.930 186.975
34 1 1 0.0 19.421 168.653 186.708
35 1 2 0.0 18.656 169.978 186.708
36 1 1 0.0 20.186 169.978 186.708
37 1 1 0.0 19.298 168.728 186.612
38 1 2 0.0 18.533 170.053 186.612
39 1 1 0.0 20.063 170.053 186.612
40 1 1 0.0 19.041 168.484 186.482
41 1 2 0.0 18.276 169.809 186.482
42 1 1 0.0 19.806 169.809 186.482
43 1 1 0.0 19.358 168.205 186.970
44 1 2 0.0 18.593 169.530 186.970
45 1 1 0.0 20.123 169.530 186.970
46 1 1 0.0 19.165 168.078 187.415
47 1 2 0.0 18.400 169.403 187.415
48 1 1 0.0 19.930 169.403 187.415
49 1 1 0.0 18.681 168.146 187.646
50 1 2 0.0 17.916 169.471 187.646
51 1 1 0.0 19.446 169.471 187.646
52 1 1 0.0 18.769 167.721 187.348
53 1 2 0.0 18.004 169.046 187.348
54 1 1 0.0 19.534 169.046 187.348
55 1 1 0.0 18.437 168.022 186.928
56 1 2 0.0 17.672 169.347 186.928
57 1 1 0.0 19.202 169.347 186.928
58 1 1 0.0 18.755 168.062 186.673
59 1 2 0.0 17.990 169.387 186.673
60 1 1 0.0 19.520 169.387 186.673
61 1 1 0.0 18.676 168.465 186.711
62 1 2 0.0 17.911 169.790 186.711
63 1 1 0.0 19.441 169.790 186.711
64 1 1 0.0 18.957 168.007 186.421
65 1 2 0.0 18.192 169.332 186.421
66 1 1 0.0 19.722 169.332 186.421
67 1 1 0.0 19.054 167.845 186.082
68 1 2 0.0 18.289 169.170 186.082
69 1 1 0.0 19.819 169.170 186.082
70 1 1 0.0 18.747 167.772 186.186
71 1 2 0.0 17.982 169.097 186.186
72 1 1 0.0 19.512 169.097 186.186
73 1 1 0.0 18.851 167.609 185.888
74 1 2 0.0 18.086 168.934 185.888
75 1 1 0.0 19.616 168.934 185.888
76 1 1 0.0 18.874 167.872 185.627
77 1 2 0.0 18.109 169.197 185.627
78 1 1 0.0 19.639 169.197 185.627
79 1 1 0.0 18.626 168.052 185.480
80 1 2 0.0 17.861 169.377 185.480
81 1 1 0.0 19.391 169.377 185.480
82 1 1 0.0 18.311 168.147 185.015
83 1 2 0.0 17.546 169.472 185.015
84 1 1 0.0 19.076 169.472 185.015
85 1 1 0.0 18.337 167.938 185.202
86 1 2 0.0 17.572 169.263 185.202
87 1 1 0.0 19.102 169.263 185.202
88 1 1 0.0 18.109 167.931 185.699
89 1 2 0.0 17.344 169.256 185.699
90 1 1 0.0 18.874 169.256 185.699
91 1 1 0.0 18.404 168.164 185.352
92 1 2 0.0 17.639 169.489 185.352
93 1 1 0.0 19.169 169.489 185.352
94 1 1 0.0 17.906 168.464 185.674
95 1 2 0.0 17.141 169.789 185.674
96 1 1 0.0 18.671 169.789 185.674
97 1 1 0.0 18.254 168.112 185.575
98 1 2 0.0 17.489 169.437 185.575
99 1 1 0.0 19.019 169.437 185.575
100 1 1 0.0 18.001 167.637 185.983
101 1 2 0.0 17.236 168.962 185.983
102 1 1 0.0 18.766 168.962 185.983
103 1 1 0.0 18.466 167.377 185.746
104 1 2 0.0 17.701 168.702 185.746
105 1 1 0.0 19.231 168.702 185.746
106 1 1 0.0 18.230 167.390 185.285
107 1 2 0.0 17.465 168.715 185.285
108 1 1 0.0 18.995 168.715 185.285
109 1 1 0.0 18.085 167.733 185.044
110 1 2 0.0 17.320 169.058 185.044
111 1 1 0.0 18.850 169.058 185.044
112 1 1 0.0 17.699 168.098 184.641
113 1 2 0.0 16.934 169.423 184.641
114 1 1 0.0 18.464 169.423 184.641
115 1 1 0.0 17.295 168.488 184.258
116 1 2 0.0 16.530 169.813 184.258
117 1 1 0.0 18.060 169.813 184.258
118 1 1 0.0 17.168 168.863 183.862
119 1 2 0.0 16.403 170.188 183.862
120 1 1 0.0 17.933 170.188 183.862
121 1 1 0.0 17.591 169.309 184.311
122 1 2 0.0 16.826 170.634 184.311
123 1 1 0.0 18.356 170.634 184.311
124 1 1 0.0 18.088 169.356 184.650
125 1 2 0.0 17.323 170.681 184.650
126 1 1 0.0 18.853 170.681 184.650
127 1 1 0.0 18.111 169.706 184.683
128 1 2 0.0 17.346 171.031 184.683
129 1 1 0.0 18.876 171.031 184.683
130 1 1 0.0 17.779 169.434 184.517
131 1 2 0.0 17.014 170.759 184.517
132 1 1 0.0 18.544 170.759 184.517
133 1 1 0.0 17.978 169.295 184.623
134 1 2 0.0 17.213 170.620 184.623
135 1 1 0.0 18.743 170.620 184.623
136 1 1 0.0 18.117 169.659 184.771
137 1 2 0.0 17.352 170.984 184.771
138 1 1 0.0 18.882 170.984 184.771
139 1 1 0.0 18.587 169.776 184.336
140 1 2 0.0 17.822 171.101 184.336
141 1 1 0.0 19.352 171.101 184.336
142 1 1 0.0 18.103 169.709 183.894
143 1 2 0.0 17.338 171.034 183.894
144 1 1 0.0 18.868 171.034 183.894
145 1 1 0.0 18.596 169.721 183.946
146 1 2 0.0 17.831 171.046 183.946
147 1 1 0.0 19.361 171.046 183.946
148 1 1 0.0 18.134 169.990 183.712
149 1 2 0.0 17.369 171.315 183.712
150 1 1 0.0 18.899 171.315 183.712
151 2 1 0.0 37.978 162.900 114.707
152 2 2 0.0 37.213 164.225 114.707
153 2 1 0.0 38.743 164.225 114.707
154 2 1 0.0 38.192 163.077 114.982
155 2 2 0.0 37.427 164.402 114.982
156 2 1 0.0 38.957 164.402 114.982
157 2 1 0.0 38.119 162.702 115.192
158 2 2 0.0 37.354 164.028 115.192
159 2 1 0.0 38.884 164.028 115.192
160 2 1 0.0 37.917 162.654 114.928
161 2 2 0.0 37.152 163.979 114.928
162 2 1 0.0 38.682 163.979 114.928
163 2 1 0.0 37.544 162.903 115.225
164 2 2 0.0 36.779 164.228 115.225
165 2 1 0.0 38.309 164.228 115.225
166 2 1 0.0 37.747 162.846 114.825
167 2 2 0.0 36.982 164.171 114.825
168 2 1 0.0 38.512 164.171 114.825
169 2 1 0.0 37.697 162.767 114.466
170 2 2 0.0 36.932 164.092 114.466
171 2 1 0.0 38.462 164.092 114.466
172 2 1 0.0 37.471 162.292 114.468
173 2 2 0.0 36.706 163.617 114.468
174 2 1 0.0 38.236 163.617 114.468
175 2 1 0.0 37.548 162.134 114.113
176 2 2 0.0 36.783 163.459 114.113
177 2 1 0.0 38.313 163.459 114.113
178 2 1 0.0 37.685 162.222 113.699
179 2 2 0.0 36.920 163.547 113.699
180 2 1 0.0 38.450 163.547 113.699
181 2 1 0.0 37.245 162.004 114.001
182 2 2 0.0 36.480 163.329 114.001
183 2 1 0.0 38.010 163.329 114.001
184 2 1 0.0 37.396 162.455 114.012
185 2 2 0.0 36.631 163.780 114.012
186 2 1 0.0 38.161 163.780 114.012
187 2 1 0.0 37.752 162.368 113.841
188 2 2 0.0 36.987 163.693 113.841
189 2 1 0.0 38.517 163.693 113.841
190 2 1 0.0 37.825 162.766 113.896
191 2 2 0.0 37.060 164.091 113.896
192 2 1 0.0 38.590 164.091 113.896
193 2 1 0.0 38.148 162.748 113.522
194 2 2 0.0 37.383 164.073 113.522
195 2 1 0.0 38.913 164.073 113.522
196 2 1 0.0 38.460 163.044 113.185
197 2 2 0.0 37.695 164.369 113.185
198 2 1 0.0 39.225 164.369 113.185
199 2 1 0.0 38.068 163.468 113.044
200 2 2 0.0 37.303 164.793 113.044
201 2 1 0.0 38.833 164.793 113.044
202 2 1 0.0 37.614 163.514 113.028
203 2 2 0.0 36.849 164.839 113.028
204 2 1 0.0 38.379 164.839 113.028
205 2 1 0.0 37.650 163.682 113.348
206 2 2 0.0 36.885 165.007 113.348
207 2 1 0.0 38.415 165.007 113.348
208 2 1 0.0 37.979 164.089 113.175
209 2 2 0.0 37.214 165.414 113.175
210 2 1 0.0 38.744 165.414 113.175
211 2 1 0.0 38.274 163.800 113.234
212 2 2 0.0 37.509 165.125 113.234
213 2 1 0.0 39.039 165.125 113.234
214 2 1 0.0 38.172 163.985 113.100
215 2 2 0.0 37.407 165.310 113.100
216 2 1 0.0 38.937 165.310 113.100
217 2 1 0.0 38.165 164.185 113.113
218 2 2 0.0 37.400 165.510 113.113
219 2 1 0.0 38.930 165.510 113.113
220 2 1 0.0 38.383 163.724 113.122
221 2 2 0.0 37.618 165.049 113.122
222 2 1 0.0 39.148 165.049 113.122
223 2 1 0.0 38.491 163.485 113.479
224 2 2 0.0 37.726 164.810 113.479
225 2 1 0.0 39.256 164.810 113.479
226 2 1 0.0 38.275 163.302 113.309
227 2 2 0.0 37.510 164.627 113.309
228 2 1 0.0 39.040 164.627 113.309
229 2 1 0.0 38.144 163.637 113.302
230 2 2 0.0 37.379 164.962 113.302
231 2 1 0.0 38.909 164.962 113.302
232 2 1 0.0 38.564 163.256 112.918
233 2 2 0.0 37.799 164.581 112.918
234 2 1 0.0 39.329 164.581 112.918
235 2 1 0.0 38.915 162.987 112.429
236 2 2 0.0 38.150 164.312 112.429
237 2 1 0.0 39.680 164.312 112.429
238 2 1 0.0 38.947 162.649 112.344
239 2 2 0.0 38.182 163.974 112.344
240 2 1 0.0 39.712 163.974 112.344
241 2 1 0.0 38.851 162.415 112.664
242 2 2 0.0 38.086 163.740 112.664
243 2 1 0.0 39.616 163.740 112.664
244 2 1 0.0 39.177 162.565 112.615
245 2 2 0.0 38.412 163.890 112.615
246 2 1 0.0 39.942 163.890 112.615
247 2 1 0.0 39.080 162.506 112.494
248 2 2 0.0 38.315 163.831 112.494
249 2 1 0.0 39.845 163.831 112.494
250 2 1 0.0 39.091 162.865 112.380
251 2 2 0.0 38.326 164.190 112.380
252 2 1 0.0 39.856 164.190 112.380
253 2 1 0.0 39.248 163.204 112.273
254 2 2 0.0 38.483 164.529 112.273
255 2 1 0.0 40.013 164.529 112.273
256 2 1 0.0 39.704 163.701 112.342
257 2 2 0.0 38.939 165.026 112.342
258 2 1 0.0 40.469 165.026 112.342
259 2 1 0.0 40.152 163.911 112.695
260 2 2 0.0 39.387 165.236 112.695
261 2 1 0.0 40.917 165.236 112.695
262 2 1 0.0 39.926 163.855 113.150
263 2 2 0.0 39.161 165.180 113.150
264 2 1 0.0 40.691 165.180 113.150
265 2 1 0.0 39.959 163.827 113.110
266 2 2 0.0 39.194 165.152 113.110
267 2 1 0.0 40.724 165.152 113.110
268 2 1 0.0 40.251 163.652 112.950
269 2 2 0.0 39.486 164.977 112.950
270 2 1 0.0 41.016 164.977 112.950
271 2 1 0.0 39.868 163.305 112.658
272 2 2 0.0 39.103 164.630 112.658
273 2 1 0.0 40.633 164.630 112.658
274 2 1 0.0 39.773 163.150 112.592
275 2 2 0.0 39.008 164.475 112.592
276 2 1 0.0 40.538 164.475 112.592
277 2 1 0.0 40.261 162.869 112.129
278 2 2 0.0 39.496 164.194 112.129
279 2 1 0.0 41.026 164.194 112.129
280 2 1 0.0 40.263 163.019 111.975
281 2 2 0.0 39.498 164.344 111.975
282 2 1 0.0 41.028 164.344 111.975
283 2 1 0.0 39.933 163.277 112.345
284 2 2 0.0 39.168 164.602 112.345
285 2 1 0.0 40.698 164.602 112.345
286 2 1 0.0 40.090 163.741 112.041
287 2 2 0.0 39.325 165.066 112.041
288 2 1 0.0 40.855 165.066 112.041
289 2 1 0.0 39.758 164.066 112.304
290 2 2 0.0 38.993 165.391 112.304
291 2 1 0.0 40.523 165.391 112.304
292 2 1 0.0 39.806 163.589 112.781
293 2 2 0.0 39.041 164.914 112.781
294 2 1 0.0 40.571 164.914 112.781
295 2 1 0.0 39.313 163.294 113.146
296 2 2 0.0 38.548 164.619 113.146
297 2 1 0.0 40.078 164.619 113.146
298 2 1 0.0 39.266 163.565 112.877
299 2 2 0.0 38.501 164.890 112.877
300 2 1 0.0 40.031 164.890 112.877
301 3 1 0.0 113.350 25.237 44.087
302 3 2 0.0 112.585 26.562 44.087
303 3 1 0.0 114.115 26.562 44.087
304 3 1 0.0 113.638 25.423 44.246
305 3 2 0.0 112.873 26.748 44.246
306 3 1 0.0 114.403 26.748 44.246
307 3 1 0.0 113.903 25.759 44.604
308 3 2 0.0 113.138 27.084 44.604
309 3 1 0.0 114.668 27.084 44.604
310 3 1 0.0 114.109 25.692 45.092
311 3 2 0.0 113.344 27.017 45.092
312 3 1 0.0 114.874 27.017 45.092
313 3 1 0.0 114.540 26.037 45.336
314 3 2 0.0 113.775 27.362 45.336
315 3 1 0.0 115.305 27.362 45.336
316 3 1 0.0 114.547 26.472 45.047
317 3 2 0.0 113.782 27.797 45.047
318 3 1 0.0 115.312 27.797 45.047
319 3 1 0.0 114.099 26.301 44.568
320 3 2 0.0 113.334 27.626 44.568
321 3 1 0.0 114.864 27.626 44.568
322 3 1 0.0 113.719 26.477 44.409
323 3 2 0.0 112.954 27.802 44.409
324 3 1 0.0 114.484 27.802 44.409
325 3 1 0.0 113.848 26.430 43.981
326 3 2 0.0 113.083 27.755 43.981
327 3 1 0.0 114.613 27.755 43.981
328 3 1 0.0 114.305 26.019 43.868
329 3 2 0.0 113.540 27.344 43.868
330 3 1 0.0 115.070 27.344 43.868
331 3 1 0.0 114.383 26.442 44.149
332 3 2 0.0 113.618 27.767 44.149
333 3 1 0.0 115.148 27.767 44.149
334 3 1 0.0 114.014 26.679 43.741
335 3 2 0.0 113.249 28.004 43.741
336 3 1 0.0 114.779 28.004 43.741
337 3 1 0.0 113.878 26.910 43.993
338 3 2 0.0 113.113 28.235 43.993
339 3 1 0.0 114.643 28.235 43.993
340 3 1 0.0 113.719 27.079 44.317
341 3 2 0.0 112.954 28.404 44.317
342 3 1 0.0 114.484 28.404 44.317
343 3 1 0.0 113.273 26.649 43.869
344 3 2 0.0 112.508 27.974 43.869
345 3 1 0.0 114.038 27.974 43.869
346 3 1 0.0 113.446 26.980 43.797
347 3 2 0.0 112.681 28.305 43.797
348 3 1 0.0 114.211 28.305 43.797
349 3 1 0.0 113.705 26.680 43.786
350 3 2 0.0 112.940 28.005 43.786
351 3 1 0.0 114.470 28.005 43.786
352 3 1 0.0 113.963 26.509 43.342
353 3 2 0.0 113.198 27.834 43.342
354 3 1 0.0 114.728 27.834 43.342
355 3 1 0.0 114.398 26.297 42.874
356 3 2 0.0 113.633 27.622 42.874
357 3 1 0.0 115.163 27.622 42.874
358 3 1 0.0 113.996 26.570 43.270
359 3 2 0.0 113.231 27.895 43.270
360 3 1 0.0 114.761 27.895 43.270
361 3 1 0.0 114.015 26.450 43.477
362 3 2 0.0 113.250 27.775 43.477
363 3 1 0.0 114.780 27.775 43.477
364 3 1 0.0 114.020 26.902 43.033
365 3 2 0.0 113.255 28.227 43.033
366 3 1 0.0 114.785 28.227 43.033
367 3 1 0.0 114.308 26.831 42.854
368 3 2 0.0 113.543 28.156 42.854
369 3 1 0.0 115.073 28.156 42.854
370 3 1 0.0 114.453 26.542 42.997
371 3 2 0.0 113.688 27.867 42.997
372 3 1 0.0 115.218 27.867 42.997
373 3 1 0.0 114.068 26.643 42.526
374 3 2 0.0 113.303 27.968 42.526
375 3 1 0.0 114.833 27.968 42.526
376 3 1 0.0 113.659 26.237 42.078
377 3 2 0.0 112.894 27.562 42.078
378 3 1 0.0 114.424 27.562 42.078
379 3 1 0.0 113.938 26.451 42.255
380 3 2 0.0 113.173 27.776 42.255
381 3 1 0.0 114.703 27.776 42.255
382 3 1 0.0 113.871 26.909 42.612
383 3 2 0.0 113.106 28.234 42.612
384 3 1 0.0 114.636 28.234 42.612
385 3 1 0.0 113.690 26.974 42.728
386 3 2 0.0 112.925 28.299 42.728
387 3 1 0.0 114.455 28.299 42.728
388 3 1 0.0 113.835 27.350 43.198
389 3 2 0.0 113.070 28.675 43.198
390 3 1 0.0 114.600 28.675 43.198
391 3 1 0.0 113.592 27.264 43.297
392 3 2 0.0 112.827 28.589 43.297
393 3 1 0.0 114.357 28.589 43.297
394 3 1 0.0 113.546 27.681 43.779
395 3 2 0.0 112.781 29.006 43.779
396 3 1 0.0 114.311 29.006 43.779
397 3 1 0.0 113.565 27.871 43.469
398 3 2 0.0 112.800 29.196 43.469
399 3 1 0.0 114.330 29.196 43.469
400 3 1 0.0 113.616 27.631 43.451
401 3 2 0.0 112.851 28.956 43.451
402 3 1 0.0 114.381 28.956 43.451
403 3 1 0.0 114.047 27.506 43.023
404 3 2 0.0 113.282 28.831 43.023
405 3 1 0.0 114.812 28.831 43.023
406 3 1 0.0 113.737 27.715 43.430
407 3 2 0.0 112.972 29.040 43.430
408 3 1 0.0 114.502 29.040 43.430
409 3 1 0.0 114.114 28.175 43.354
410 3 2 0.0 113.349 29.500 43.354
411 3 1 0.0 114.879 29.500 43.354
412 3 1 0.0 114.480 28.386 43.851
413 3 2 0.0 113.715 29.711 43.851
414 3 1 0.0 115.245 29.711 43.851
415 3 1 0.0 114.977 28.311 43.904
416 3 2 0.0 114.212 29.636 43.904
417 3 1 0.0 115.742 29.636 43.904
418 3 1 0.0 115.090 28.217 43.587
419 3 2 0.0 114.325 29.542 43.587
420 3 1 0.0 115.855 29.542 43.587
421 3 1 0.0 115.376 28.081 43.350
422 3 2 0.0 114.611 29.406 43.350
423 3 1 0.0 116.141 29.406 43.350
424 3 1 0.0 115.456 27.720 43.523
425 3 2 0.0 114.691 29.045 43.523
426 3 1 0.0 116.221 29.045 43.523
427 3 1 0.0 115.187 27.451 43.066
428 3 2 0.0 114.422 28.776 43.066
429 3 1 0.0 115.952 28.776 43.066
430 3 1 0.0 115.389 27.797 43.138
431 3 2 0.0 114.624 29.122 43.138
432 3 1 0.0 116.154 29.122 43.138
433 3 1 0.0 115.052 27.393 42.875
434 3 2 0.0 114.287 28.718 42.875
435 3 1 0.0 115.817 28.718 42.875
436 3 1 0.0 115.132 27.340 42.453
437 3 2 0.0 114.367 28.665 42.453
438 3 1 0.0 115.897 28.665 42.453
439 3 1 0.0 115.462 27.352 42.128
440 3 2 0.0 114.697 28.677 42.128
441 3 1 0.0 116.227 28.677 42.128
442 3 1 0.0 115.915 27.004 42.372
443 3 2 0.0 115.150 28.329 42.372
444 3 1 0.0 116.680 28.329 42.372
445 3 1 0.0 116.341 26.681 42.517
446 3 2 0.0 115.576 28.006 42.517
447 3 1 0.0 117.106 28.006 42.517
448 3 1 0.0 116.211 26.261 42.461
449 3 2 0.0 115.446 27.586 42.461
450 3 1 0.0 116.976 27.586 42.461
451 4 1 0.0 31.458 115.904 200.823
452 4 2 0.0 30.693 117.229 200.823
453 4 1 0.0 32.223 117.229 200.823
454 4 1 0.0 31.343 116.207 200.418
455 4 2 0.0 30.578 117.532 200.418
456 4 1 0.0 32.108 117.532 200.418
457 4 1 0.0 31.294 116.301 200.151
458 4 2 0.0 30.529 117.626 200.151
459 4 1 0.0 32.059 117.626 200.151
460 4 1 0.0 31.244 116.227 199.937
461 4 2 0.0 30.479 117.552 199.937
462 4 1 0.0 32.009 117.552 199.937
463 4 1 0.0 31.229 116.379 200.032
464 4 2 0.0 30.464 117.704 200.032
465 4 1 0.0 31.994 117.704 200.032
466 4 1 0.0 30.799 116.487 200.262
467 4 2 0.0 30.034 117.812 200.262
468 4 1 0.0 31.564 117.812 200.262
469 4 1 0.0 31.200 116.873 200.319
470 4 2 0.0 30.435 118.198 200.319
471 4 1 0.0 31.965 118.198 200.319
472 4 1 0.0 30.782 116.859 200.758
473 4 2 0.0 30.017 118.184 200.758
474 4 1 0.0 31.547 118.184 200.758
475 4 1 0.0 30.362 116.910 200.895
476 4 2 0.0 29.597 118.235 200.895
477 4 1 0.0 31.127 118.235 200.895
478 4 1 0.0 30.055 116.733 201.039
479 4 2 0.0 29.290 118.058 201.039
480 4 1 0.0 30.820 118.058 201.039
481 4 1 0.0 30.529 116.359 200.814
482 4 2 0.0 29.764 117.684 200.814
483 4 1 0.0 31.294 117.684 200.814
484 4 1 0.0 30.570 116.813 201.190
485 4 2 0.0 29.805 118.138 201.190
486 4 1 0.0 31.335 118.138 201.190
487 4 1 0.0 30.394 116.661 201.039
488 4 2 0.0 29.629 117.986 201.039
489 4 1 0.0 31.159 117.986 201.039
490 4 1 0.0 30.169 116.886 200.851
491 4 2 0.0 29.404 118.211 200.851
492 4 1 0.0 30.934 118.211 200.851
493 4 1 0.0 29.993 116.595 200.818
494 4 2 0.0 29.228 117.920 200.818
495 4 1 0.0 30.758 117.920 200.818
496 4 1 0.0 29.752 116.557 200.365
497 4 2 0.0 28.987 117.882 200.365
498 4 1 0.0 30.517 117.882 200.365
499 4 1 0.0 29.662 116.631 199.979
500 4 2 0.0 28.897 117.956 199.979
501 4 1 0.0 30.427 117.956 199.979
502 4 1 0.0 29.507 116.907 199.794
503 4 2 0.0 28.742 118.232 199.794
504 4 1 0.0 30.272 118.232 199.794
505 4 1 0.0 29.827 116.881 199.379
506 4 2 0.0 29.062 118.206 199.379
507 4 1 0.0 30.592 118.206 199.379
508 4 1 0.0 30.031 117.151 199.386
509 4 2 0.0 29.266 118.476 199.386
510 4 1 0.0 30.796 118.476 199.386
511 4 1 0.0 30.260 116.668 199.671
512 4 2 0.0 29.495 117.993 199.671
513 4 1 0.0 31.025 117.993 199.671
514 4 1 0.0 30.030 116.368 200.013
515 4 2 0.0 29.265 117.693 200.013
516 4 1 0.0 30.795 117.693 200.013
517 4 1 0.0 30.259 116.559 200.095
518 4 2 0.0 29.494 117.884 200.095
519 4 1 0.0 31.024 117.884 200.095
520 4 1 0.0 30.695 116.141 199.616
521 4 2 0.0 29.930 117.466 199.616
522 4 1 0.0 31.460 117.466 199.616
523 4 1 0.0 30.221 115.759 199.924
524 4 2 0.0 29.456 117.084 199.924
525 4 1 0.0 30.986 117.084 199.924
526 4 1 0.0 29.820 115.452 199.603
527 4 2 0.0 29.055 116.777 199.603
528 4 1 0.0 30.585 116.777 199.603
529 4 1 0.0 29.787 115.781 200.033
530 4 2 0.0 29.022 117.106 200.033
531 4 1 0.0 30.552 117.106 200.033
532 4 1 0.0 29.510 115.288 199.778
533 4 2 0.0 28.745 116.613 199.778
534 4 1 0.0 30.275 116.613 199.778
535 4 1 0.0 29.511 114.873 200.257
536 4 2 0.0 28.746 116.198 200.257
537 4 1 0.0 30.276 116.198 200.257
538 4 1 0.0 29.994 114.897 200.497
539 4 2 0.0 29.229 116.222 200.497
540 4 1 0.0 30.759 116.222 200.497
541 4 1 0.0 30.122 114.913 200.931
542 4 2 0.0 29.357 116.238 200.931
543 4 1 0.0 30.887 116.238 200.931
544 4 1 0.0 30.526 115.349 200.976
545 4 2 0.0 29.761 116.674 200.976
546 4 1 0.0 31.291 116.674 200.976
547 4 1 0.0 30.327 115.719 200.855
548 4 2 0.0 29.562 117.044 200.855
549 4 1 0.0 31.092 117.044 200.855
550 4 1 0.0 30.659 115.521 201.047
551 4 2 0.0 29.894 116.846 201.047
552 4 1 0.0 31.424 116.846 201.047
553 4 1 0.0 30.551 115.583 200.731
554 4 2 0.0 29.786 116.908 200.731
555 4 1 0.0 31.316 116.908 200.731
556 4 1 0.0 30.072 116.021 200.630
557 4 2 0.0 29.307 117.346 200.630
558 4 1 0.0 30.837 117.346 200.630
559 4 1 0.0 29.775 115.579 200.526
560 4 2 0.0 29.010 116.904 200.526
561 4 1 0.0 30.540 116.904 200.526
562 4 1 0.0 29.890 115.819 200.339
563 4 2 0.0 29.125 117.144 200.339
564 4 1 0.0 30.655 117.144 200.339
565 4 1 0.0 29.427 116.290 200.550
566 4 2 0.0 28.662 117.615 200.550
567 4 1 0.0 30.192 117.615 200.550
568 4 1 0.0 29.673 116.508 200.621
569 4 2 0.0 28.908 117.833 200.621
570 4 1 0.0 30.438 117.833 200.621
571 4 1 0.0 29.836 116.111 200.657
572 4 2 0.0 29.071 117.436 200.657
573 4 1 0.0 30.601 117.436 200.657
574 4 1 0.0 29.942 116.462 200.420
575 4 2 0.0 29.177 117.787 200.420
576 4 1 0.0 30.707 117.787 200.420
577 4 1 0.0 29.523 116.122 199.924
578 4 2 0.0 28.758 117.447 199.924
579 4 1 0.0 30.288 117.447 199.924
580 4 1 0.0 29.388 116.017 199.779
581 4 2 0.0 28.623 117.342 199.779
582 4 1 0.0 30.153 117.342 199.779
583 4 1 0.0 29.271 116.475 199.533
584 4 2 0.0 28.506 117.800 199.533
585 4 1 0.0 30.036 117.800 199.533
586 4 1 0.0 28.828 116.697 200.005
587 4 2 0.0 28.063 118.022 200.005
588 4 1 0.0 29.593 118.022 200.005
589 4 1 0.0 28.370 117.125 199.808
590 4 2 0.0 27.605 118.450 199.808
591 4 1 0.0 29.135 118.450 199.808
592 4 1 0.0 28.257 116.801 199.312
593 4 2 0.0 27.492 118.126 199.312
594 4 1 0.0 29.022 118.126 199.312
595 4 1 0.0 27.858 116.840 199.513
596 4 2 0.0 27.093 118.165 199.513
597 4 1 0.0 28.623 118.165 199.513
598 4 1 0.0 27.804 116.645 199.171
599 4 2 0.0 27.039 117.970 199.171
600 4 1 0.0 28.569 117.970 199.171
601 5 1 0.0 90.918 17.626 154.062
602 5 2 0.0 90.153 18.951 154.062
603 5 1 0.0 91.683 18.951 154.062
604 5 1 0.0 91.387 18.038 153.565
605 5 2 0.0 90.622 19.363 153.565
606 5 1 0.0 92.152 19.363 153.565
607 5 1 0.0 91.026 18.380 153.532
608 5 2 0.0 90.261 19.705 153.532
609 5 1 0.0 91.791 19.705 153.532
610 5 1 0.0 91.515 18.576 153.142
611 5 2 0.0 90.750 19.901 153.142
612 5 1 0.0 92.280 19.901 153.142
613 5 1 0.0 91.610 19.069 152.799
614 5 2 0.0 90.845 20.394 152.799
615 5 1 0.0 92.375 20.394 152.799
616 5 1 0.0 91.608 18.838 152.481
617 5 2 0.0 90.843 20.163 152.481
618 5 1 0.0 92.373 20.163 152.481
619 5 1 0.0 91.997 18.366 152.367
620 5 2 0.0 91.232 19.691 152.367
621 5 1 0.0 92.762 19.691 152.367
622 5 1 0.0 92.190 18.294 152.857
623 5 2 0.0 91.425 19.619 152.857
624 5 1 0.0 92.955 19.619 152.857
625 5 1 0.0 91.794 17.875 152.604
626 5 2 0.0 91.029 19.200 152.604
627 5 1 0.0 92.559 19.200 152.604
628 5 1 0.0 91.819 17.516 152.310
629 5 2 0.0 91.054 18.841 152.310
630 5 1 0.0 92.584 18.841 152.310
631 5 1 0.0 92.044 17.337 152.342
632 5 2 0.0 91.279 18.662 152.342
633 5 1 0.0 92.809 18.662 152.342
634 5 1 0.0 92.017 17.610 151.950
635 5 2 0.0 91.252 18.935 151.950
636 5 1 0.0 92.782 18.935 151.950
637 5 1 0.0 91.904 17.890 151.486
638 5 2 0.0 91.139 19.215 151.486
639 5 1 0.0 92.669 19.215 151.486
640 5 1 0.0 92.082 18.263 151.097
641 5 2 0.0 91.317 19.588 151.097
642 5 1 0.0 92.847 19.588 151.097
643 5 1 0.0 92.514 17.952 151.373
644 5 2 0.0 91.749 19.277 151.373
645 5 1 0.0 93.279 19.277 151.373
646 5 1 0.0 92.272 18.039 151.720
647 5 2 0.0 91.507 19.364 151.720
648 5 1 0.0 93.037 19.364 151.720
649 5 1 0.0 92.741 18.127 151.606
650 5 2 0.0 91.976 19.452 151.606
651 5 1 0.0 93.506 19.452 151.606
652 5 1 0.0 92.734 18.104 151.594
653 5 2 0.0 91.969 19.429 151.594
654 5 1 0.0 93.499 19.429 151.594
655 5 1 0.0 93.170 17.804 151.562
656 5 2 0.0 92.405 19.129 151.562
657 5 1 0.0 93.935 19.129 151.562
658 5 1 0.0 92.893 17.377 151.479
659 5 2 0.0 92.128 18.702 151.479
660 5 1 0.0 93.658 18.702 151.479
661 5 1 0.0 92.926 17.845 151.658
662 5 2 0.0 92.161 19.170 151.658
663 5 1 0.0 93.691 19.170 151.658
664 5 1 0.0 93.145 18.335 151.889
665 5 2 0.0 92.380 19.660 151.889
666 5 1 0.0 93.910 19.660 151.889
667 5 1 0.0 93.548 17.954 152.000
668 5 2 0.0 92.783 19.279 152.000
669 5 1 0.0 94.313 19.279 152.000
670 5 1 0.0 93.745 18.086 151.804
671 5 2 0.0 92.980 19.411 151.804
672 5 1 0.0 94.510 19.411 151.804
673 5 1 0.0 93.973 18.275 151.417
674 5 2 0.0 93.208 19.600 151.417
675 5 1 0.0 94.738 19.600 151.417
676 5 1 0.0 93.799 18.036 151.426
677 5 2 0.0 93.034 19.361 151.426
678 5 1 0.0 94.564 19.361 151.426
679 5 1 0.0 94.212 18.371 150.981
680 5 2 0.0 93.447 19.696 150.981
681 5 1 0.0 94.977 19.696 150.981
682 5 1 0.0 94.458 18.732 150.721
683 5 2 0.0 93.693 20.057 150.721
684 5 1 0.0 95.223 20.057 150.721
685 5 1 0.0 94.300 18.308 150.560
686 5 2 0.0 93.535 19.633 150.560
687 5 1 0.0 95.065 19.633 150.560
688 5 1 0.0 93.928 18.105 150.649
689 5 2 0.0 93.163 19.430 150.649
690 5 1 0.0 94.693 19.430 150.649
691 5 1 0.0 93.694 17.740 150.768
692 5 2 0.0 92.929 19.065 150.768
693 5 1 0.0 94.459 19.065 150.768
694 5 1 0.0 94.190 17.999 150.942
695 5 2 0.0 93.425 19.324 150.942
696 5 1 0.0 94.955 19.324 150.942
697 5 1 0.0 94.112 18.287 151.392
698 5 2 0.0 93.347 19.612 151.392
699 5 1 0.0 94.877 19.612 151.392
700 5 1 0.0 93.677 18.747 151.441
701 5 2 0.0 92.912 20.072 151.441
702 5 1 0.0 94.442 20.072 151.441
703 5 1 0.0 93.751 18.485 150.959
704 5 2 0.0 92.986 19.810 150.959
705 5 1 0.0 94.516 19.810 150.959
706 5 1 0.0 93.902 18.487 150.532
707 5 2 0.0 93.137 19.812 150.532
708 5 1 0.0 94.667 19.812 150.532
709 5 1 0.0 94.050 18.634 150.743
710 5 2 0.0 93.285 19.959 150.743
711 5 1 0.0 94.815 19.959 150.743
712 5 1 0.0 94.443 19.131 150.610
713 5 2 0.0 93.678 20.456 150.610
714 5 1 0.0 95.208 20.456 150.610
715 5 1 0.0 94.372 19.128 150.759
716 5 2 0.0 93.607 20.453 150.759
717 5 1 0.0 95.137 20.453 150.759
718 5 1 0.0 94.115 19.104 150.638
719 5 2 0.0 93.350 20.429 150.638
720 5 1 0.0 94.880 20.429 150.638
721 5 1 0.0 94.417 19.391 151.129
722 5 2 0.0 93.652 20.716 151.129
723 5 1 0.0 95.182 20.716 151.129
724 5 1 0.0 94.478 19.151 151.218
725 5 2 0.0 93.713 20.476 151.218
726 5 1 0.0 95.243 20.476 151.218
727 5 1 0.0 94.341 18.713 151.369
728 5 2 0.0 93.576 20.038 151.369
729 5 1 0.0 95.106 20.038 151.369
730 5 1 0.0 94.340 18.731 151.627
731 5 2 0.0 93.575 20.056 151.627
732 5 1 0.0 95.105 20.056 151.627
733 5 1 0.0 94.209 18.647 151.738
734 5 2 0.0 93.444 19.972 151.738
735 5 1 0.0 94.974 19.972 151.738
736 5 1 0.0 94.660 19.040 151.865
737 5 2 0.0 93.895 20.365 151.865
738 5 1 0.0 95.425 20.365 151.865
739 5 1 0.0 95.058 18.643 152.288
740 5 2 0.0 94.293 19.968 152.288
741 5 1 0.0 95.823 19.968 152.288
742 5 1 0.0 95.064 18.333 152.733
743 5 2 0.0 94.299 19.658 152.733
744 5 1 0.0 95.829 19.658 152.733
745 5 1 0.0 94.817 17.848 152.636
746 5 2 0.0 94.052 19.173 152.636
747 5 1 0.0 95.582 19.173 152.636
748 5 1 0.0 94.322 18.222 152.486
749 5 2 0.0 93.557 19.547 152.486
750 5 1 0.0 95.087 19.547 152.486
751 6 1 0.0 109.049 45.067 129.816
752 6 2 0.0 108.284 46.392 129.816
753 6 1 0.0 109.814 46.392 129.816
754 6 1 0.0 109.337 44.641 129.503
755 6 2 0.0 108.572 45.966 129.503
756 6 1 0.0 110.102 45.966 129.503
757 6 1 0.0 109.235 44.864 129.933
758 6 2 0.0 108.470 46.189 129.933
759 6 1 0.0 110.000 46.189 129.933
760 6 1 0.0 109.315 44.840 129.767
761 6 2 0.0 108.550 46.165 129.767
762 6 1 0.0 110.080 46.165 129.767
763 6 1 0.0 108.996 45.034 130.076
764 6 2 0.0 108.231 46.359 130.076
765 6 1 0.0 109.761 46.359 130.076
766 6 1 0.0 108.783 45.109 130.355
767 6 2 0.0 108.018 46.435 130.355
768 6 1 0.0 109.548 46.435 130.355
769 6 1 0.0 108.947 45.137 130.458
770 6 2 0.0 108.182 46.462 130.458
771 6 1 0.0 109.712 46.462 130.458
772 6 1 0.0 108.642 45.129 130.797
773 6 2 0.0 107.877 46.454 130.797
774 6 1 0.0 109.407 46.454 130.797
775 6 1 0.0 108.532 44.709 131.201
776 6 2 0.0 107.767 46.034 131.201
777 6 1 0.0 109.297 46.034 131.201
778 6 1 0.0 108.854 44.764 130.888
779 6 2 0.0 108.089 46.089 130.888
780 6 1 0.0 109.619 46.089 130.888
781 6 1 0.0 108.617 44.817 130.613
782 6 2 0.0 107.852 46.142 130.613
783 6 1 0.0 109.382 46.142 130.613
784 6 1 0.0 108.299 44.780 130.900
785 6 2 0.0 107.534 46.105 130.900
786 6 1 0.0 109.064 46.105 130.900
787 6 1 0.0 108.156 45.081 130.833
788 6 2 0.0 107.391 46.406 130.833
789 6 1 0.0 108.921 46.406 130.833
790 6 1 0.0 107.706 44.967 130.938
791 6 2 0.0 106.941 46.292 130.938
792 6 1 0.0 108.471 46.292 130.938
793 6 1 0.0 108.102 45.151 130.864
794 6 2 0.0 107.337 46.476 130.864
795 6 1 0.0 108.867 46.476 130.864
796 6 1 0.0 108.542 45.430 131.157
797 6 2 0.0 107.777 46.755 131.157
798 6 1 0.0 109.307 46.755 131.157
799 6 1 0.0 108.232 45.185 131.370
800 6 2 0.0 107.467 46.510 131.370
801 6 1 0.0 108.997 46.510 131.370
802 6 1 0.0 108.314 44.866 131.859
803 6 2 0.0 107.549 46.191 131.859
804 6 1 0.0 109.079 46.191 131.859
805 6 1 0.0 108.244 45.133 131.452
806 6 2 0.0 107.479 46.458 131.452
807 6 1 0.0 109.009 46.458 131.452
808 6 1 0.0 108.089 44.889 131.166
809 6 2 0.0 107.324 46.215 131.166
810 6 1 0.0 108.854 46.215 131.166
811 6 1 0.0 107.627 45.264 131.611
812 6 2 0.0 106.862 46.589 131.611
813 6 1 0.0 108.392 46.589 131.611
814 6 1 0.0 107.947 45.176 131.166
815 6 2 0.0 107.182 46.501 131.166
816 6 1 0.0 108.712 46.501 131.166
817 6 1 0.0 107.578 45.487 130.880
818 6 2 0.0 106.813 46.812 130.880
819 6 1 0.0 108.343 46.812 130.880
820 6 1 0.0 107.827 45.185 131.270
821 6 2 0.0 107.062 46.510 131.270
822 6 1 0.0 108.592 46.510 131.270
823 6 1 0.0 107.698 45.141 130.991
824 6 2 0.0 106.933 46.466 130.991
825 6 1 0.0 108.463 46.466 130.991
826 6 1 0.0 107.329 44.971 131.350
827 6 2 0.0 106.564 46.296 131.350
828 6 1 0.0 108.094 46.296 131.350
829 6 1 0.0 107.653 44.996 130.954
830 6 2 0.0 106.888 46.321 130.954
831 6 1 0.0 108.418 46.321 130.954
832 6 1 0.0 107.680 44.567 131.242
833 6 2 0.0 106.915 45.892 131.242
834 6 1 0.0 108.445 45.892 131.242
835 6 1 0.0 107.870 44.278 131.469
836 6 2 0.0 107.105 45.603 131.469
837 6 1 0.0 108.635 45.603 131.469
838 6 1 0.0 107.380 43.815 131.805
839 6 2 0.0 106.615 45.140 131.805
840 6 1 0.0 108.145 45.140 131.805
841 6 1 0.0 107.267 43.906 131.841
842 6 2 0.0 106.502 45.231 131.841
843 6 1 0.0 108.032 45.231 131.841
844 6 1 0.0 106.914 43.704 131.608
845 6 2 0.0 106.149 45.029 131.608
846 6 1 0.0 107.679 45.029 131.608
847 6 1 0.0 107.065 43.237 131.877
848 6 2 0.0 106.300 44.562 131.877
849 6 1 0.0 107.830 44.562 131.877
850 6 1 0.0 107.502 43.154 132.261