ITEM: TIMESTEP
0
ITEM: NUMBER OF ATOMS
20441
ITEM: BOX BOUNDS pp pp pp
0.0000000000000000e+00 2.0000000000000000e+02
0.0000000000000000e+00 2.0000000000000000e+02
0.0000000000000000e+00 3.0000000000000000e+02
ITEM: ATOMS id type x y z
10885 1 29.5238 42.6099 0.0774863
10886 2 30.5829 43.6759 0.458858
10887 1 30.2863 44.7872 1.53163
10888 1 29.4361 46.0645 1.18561
10889 2 30.1007 47.4108 0.775674
475 1 27.1244 57.8495 0.0379352
480 1 32.7013 57.325 0.418009
481 1 33.4698 57.9915 1.60374
482 2 32.7216 58.7425 2.76572
483 1 32.9768 60.2531 3.03049
484 1 32.3154 61.3642 2.16425
485 2 32.8811 62.7941 2.19113
486 1 33.2483 63.5302 0.891077
487 1 33.1849 65.0723 0.839565
6248 2 56.5263 128.082 6.34126
6240 1 56.1098 134.794 6.87933
6245 2 56.9373 131.435 4.01354
6246 1 56.9317 130.495 5.24516
6247 1 56.5501 129.01 5.10402
6241 1 57.5466 135.168 6.39405
6242 2 58.0585 134.821 4.97217
6243 1 58.7517 133.448 4.69724
6244 1 58.1541 132.391 3.68645
14414 2 104.166 149.488 6.03088
14415 1 103.121 148.836 5.0966
14416 1 102.662 147.366 5.29903
14417 2 101.161 147.027 5.47512
14418 1 100.557 146.851 6.89001
14402 2 107.394 147.008 6.72849
4358 2 182.739 147.222 7.01732
4359 1 182.348 146.111 5.99374
4360 1 183.256 144.852 5.76651
4361 2 182.701 143.411 5.99415
4409 2 184.739 149.01 3.93457
4410 1 184.111 148.721 2.52905
4411 1 182.566 148.762 2.31167
4412 2 181.945 149.705 1.24274
4404 1 180.689 152.341 6.47963
4405 1 181.725 151.527 5.69928
4406 2 183.208 151.92 5.72631
4407 1 184.13 151.653 4.50825
4408 1 185.142 150.457 4.42688
4413 1 181.233 151.024 1.64774
4414 1 181.821 152.395 1.23447
4415 2 181.355 153.69 1.93529
4416 1 182.358 154.816 2.25786
4417 1 182.474 155.366 3.70222
4418 2 183.725 156.134 4.16992
4419 1 184.964 155.403 4.72974
4420 1 186.367 156.017 4.64347
4421 2 187.513 155.232 3.954
4422 1 188.064 155.676 2.56473
4423 1 187.269 155.399 1.24316
4424 2 186.813 156.569 0.3251
4425 1 185.445 157.276 0.533429
4426 1 185.394 158.766 0.939918
4427 2 184.2 159.333 1.73698
4428 1 184.43 160.433 2.80232
4429 1 184.005 160.234 4.30765
4430 2 185.007 159.976 5.51405
4437 1 183.396 164.132 7.03501
4431 1 186.564 160.22 5.45771
4432 1 187.222 161.425 6.17632
4433 2 187.562 162.739 5.39519
4434 1 186.948 164.104 5.82157
4435 1 185.501 164.51 5.41083
4436 2 184.502 165.044 6.46602
1448 2 180.642 171.283 6.82359
1465 1 192.043 166.697 5.35489
1466 2 190.485 166.811 5.18699
1467 1 189.811 168.015 4.46021
1468 1 188.995 169.058 5.2814
1469 2 189.428 170.563 5.4003
1470 1 190.702 171.03 6.16938
1493 2 188.438 170.994 1.3269
1494 1 189.881 171.05 0.795523
1464 1 192.851 167.593 6.35498
1497 1 192.644 168.605 0.0878194
1498 1 192.866 168.432 1.63942
1499 2 194.004 169.154 2.4084
1500 1 193.667 170.283 3.38846
11987 2 30.1995 177.526 2.11109
11974 1 31.6173 178.389 6.23372
11988 1 31.6992 177.333 2.40532
11989 1 32.6109 176.579 1.41975
11990 2 33.9995 177.149 1.05389
1424 2 185.042 176.697 5.89984
1425 1 185.059 177.587 4.63468
1426 1 183.805 178.433 4.24591
1479 1 191.839 174.886 4.84872
1480 1 190.656 174.514 3.92015
1481 2 190.223 175.464 2.7701
1482 1 190.553 175.12 1.28941
1483 1 191.902 175.527 0.613266
1491 1 186.645 172.814 0.461195
1492 1 187.629 172.294 1.54782
1476 1 195.183 173.1 6.10994
1477 1 194.271 174.31 5.78771
1478 2 193.206 174.195 4.69054
11939 2 25.3255 182.38 6.59317
11940 1 25.7805 183.297 5.40973
11941 1 24.8302 184.393 4.77516
11960 2 28.1907 185.135 1.11629
11961 1 28.0423 185.335 2.65606
11959 1 27.1206 185.697 0.136511
11968 1 32.2642 184.119 5.55406
11969 2 31.7312 182.715 5.30892
11972 2 29.4054 179.955 6.09395
11975 2 33.0743 178.882 6.45895
11978 2 35.0405 180.426 3.31656
11981 2 32.147 182.447 1.22334
11967 1 33.0771 184.917 4.51418
11970 1 30.2165 182.394 5.14956
11971 1 29.4605 181.512 6.19025
11973 1 30.4088 179.089 6.91617
11976 1 34.0952 178.86 5.2964
11977 1 34.8044 180.155 4.82827
11979 1 34.3086 181.568 2.57667
11980 1 32.9843 181.302 1.83684
11985 1 28.9715 179.358 0.526603
11986 1 29.63 178.945 1.88648
11997 1 35.3659 184.661 0.127714
1427 2 183.823 179.991 4.30234
1428 1 183.577 180.748 5.64479
1429 1 184.634 181.74 6.19363
1409 2 191.816 183.754 6.97528
1406 2 194.723 181.038 6.92406
1407 1 193.817 182.074 6.20726
1408 1 193.317 183.326 6.97884
1405 1 194.276 179.553 7.13317
11942 2 24.6139 185.849 5.36742
11943 1 25.7836 186.772 5.80975
11944 1 25.8501 188.213 5.31926
11951 2 22.1181 189.835 5.84944
11952 1 22.077 190.773 4.59771
11953 1 23.3403 191.001 3.72045
11956 1 25.0814 188.426 1.44789
11957 2 25.5835 187.944 0.0560893
11945 2 26.7862 189.237 5.97987
11954 2 23.4531 190.395 2.29748
11955 1 24.8193 189.925 1.73826
11946 1 26.2473 190.599 6.48728
11962 1 29.2033 185.821 3.54205
11963 2 29.6074 187.328 3.67626
11965 1 32.3034 187.5 4.02592
11966 2 33.2553 186.455 4.71149
11999 2 34.5641 187.164 0.604286
11964 1 30.8361 187.75 4.5267
11998 1 35.6353 186.173 0.123704
12000 1 34.9715 188.571 1.05283
6249 1 55.2223 127.937 7.19046
6250 1 55.2161 128.177 8.72264
6255 1 54.6349 128.214 13.2374
6259 1 50.5745 125.92 13.3233
6260 2 51.2624 124.895 12.3381
6261 1 52.1572 123.714 12.8482
6262 1 53.5787 123.436 12.2516
6263 2 54.8701 124.15 12.7689
6264 1 55.5513 123.763 14.1053
6257 2 52.0691 128.092 14.0454
6270 1 60.9808 127.535 13.794
6271 1 62.4023 127.176 13.3709
6272 2 62.7077 126.994 11.869
6273 1 63.9254 126.18 11.3824
6274 1 63.8464 124.656 11.0043
6275 2 64.2332 123.502 12.0067
6295 1 59.8675 122.662 12.9193
6296 2 59.8988 123.981 12.1051
6297 1 58.6954 124.501 11.2823
6298 1 58.3729 126.022 11.2149
6299 2 58.7992 126.883 10.0038
6300 1 59.2508 128.329 10.2052
6276 1 65.6707 123.33 12.5933
6277 1 65.988 123.812 14.0478
6279 1 67.0706 126.338 13.7559
6237 1 55.1601 134.811 10.3639
6238 1 56.101 133.916 9.49433
6239 2 55.85 133.685 7.96642
6251 2 54.9066 129.572 9.33736
6252 1 55.8568 130.157 10.4187
6253 1 55.3802 130.418 11.8758
6254 2 55.6309 129.385 13.0192
6209 2 59.2701 135.193 14.1503
6210 1 58.7438 133.9 13.4661
6224 2 63.2059 134.529 13.0232
6225 1 63.7047 133.727 11.7896
6226 1 63.6823 132.157 11.745
6227 2 62.4407 131.301 11.2544
6228 1 61.636 131.604 9.94941
6229 1 60.3634 132.492 9.99872
6230 2 60.1631 133.661 8.99458
6231 1 60.6372 135.136 9.27431
6211 1 58.5058 132.604 14.2834
6212 2 59.5311 131.449 14.2663
6281 2 66.241 128.924 13.709
6282 1 67.4422 129.925 13.8696
6235 1 56.3062 137.296 10.4514
6236 2 55.7035 136.031 11.1722
6223 1 63.3559 136.086 13.1207
6232 1 59.893 136.092 10.2482
6233 2 58.9544 137.224 9.75062
6234 1 57.7932 137.726 10.665
6222 1 64.7605 136.802 13.2337
14422 1 101.398 142.152 8.79787
14423 2 102.319 141.612 9.92305
14424 1 101.77 141.488 11.3716
14425 1 102.235 142.45 12.4838
4351 1 184.936 141.042 12.3738
4366 1 180.923 142.018 12.2253
4352 2 185.627 142.295 11.827
4362 1 182.752 142.722 7.38879
4363 1 181.459 142.561 8.22298
4364 2 181.489 141.898 9.60951
4365 1 180.727 142.537 10.7877
14467 1 98.0998 148.229 11.8992
14468 2 97.0315 149.389 12.1157
14470 1 94.8619 148.29 10.714
14471 2 93.8879 147.344 11.4481
14473 1 93.8326 145.184 12.9921
14474 2 94.1226 143.69 13.1933
14419 1 99.9391 145.503 7.3294
14466 1 98.9751 148.113 10.6086
14469 1 95.5825 149.462 11.4692
14472 1 94.2977 145.888 11.7177
14465 2 100.276 148.939 10.3937
14403 1 106.93 145.882 7.68234
14404 1 105.414 145.526 7.90166
14405 2 104.547 146.171 9.04874
14406 1 104.746 145.855 10.5816
14407 1 105.981 146.389 11.4088
14408 2 106.037 147.817 12.035
14409 1 106.513 149.042 11.1854
14420 2 100.534 144.694 8.50621
14421 1 101.581 143.577 8.23577
14426 2 101.335 143.626 12.977
14427 1 101.972 145.007 13.2887
14447 2 102.743 149.646 14.0878
14401 1 108.139 148.229 7.28695
4377 1 176.778 149.823 10.5207
4378 1 176.304 148.481 9.90611
4379 2 177.32 147.52 9.23163
4380 1 177.986 146.377 10.0471
4353 1 184.927 143.66 11.8955
4354 1 184.864 144.552 10.652
4355 2 183.661 145.463 10.416
4356 1 183.77 146.601 9.4135
4357 1 182.57 147.007 8.53912
4367 2 181.119 143.009 13.3987
4381 1 179.434 146.522 10.5425
4382 2 179.757 146.547 12.0344
4383 1 180.73 147.569 12.6156
4384 1 181.52 147.254 13.8956
4385 2 182.761 148.081 14.2733
4386 1 184.178 147.49 14.1123
4387 1 185.119 148.067 13.0508
4388 2 186.59 147.662 12.9644
4389 1 187.477 148.276 11.8704
4390 1 188.857 148.914 12.1938
14462 2 99.7247 152.687 10.5046
14461 1 99.5969 153.028 12.0095
14464 1 100.224 150.215 9.50523
14410 1 105.608 150.299 10.9348
14411 2 104.473 150.33 9.86506
14412 1 104.758 150.629 8.37785
14413 1 103.729 150.25 7.30254
14457 1 103.498 155.662 13.7848
14458 1 101.998 155.552 14.1241
14459 2 101.199 154.295 13.7395
14460 1 100.174 154.336 12.5858
14463 1 100.711 151.582 10.0462
4375 1 177.277 150.016 13.1569
4376 2 176.356 150.26 11.9385
4396 1 185.492 150.553 8.39903
4397 2 184.622 150.342 9.62954
4398 1 183.36 151.161 9.81716
4399 1 182.121 150.551 10.5108
4400 2 180.861 151.394 10.9252
4401 1 180.201 152.496 9.99862
4402 1 179.229 152.196 8.79463
4403 2 179.679 151.611 7.40511
4453 1 184.41 156.849 8.28499
4454 2 183.357 155.721 8.46827
4455 1 181.978 155.965 9.18413
4456 1 181.838 156.536 10.6509
4457 2 181.863 155.616 11.9185
4458 1 183.098 155.532 12.9126
4459 1 184.617 155.402 12.4844
4460 2 185.189 154.162 11.7235
4462 1 185.504 151.872 13.131
4395 1 186.941 150.061 8.33491
4391 2 189.15 150.425 11.935
4392 1 189.663 150.93 10.5488
4393 1 188.724 151.72 9.58038
4394 2 188.135 151.071 8.27567
4452 1 185.894 156.605 8.59318
4461 1 186.087 153.138 12.409
4439 2 180.955 163.986 8.15882
4440 1 179.881 162.904 7.72639
4441 1 180.263 161.467 7.18078
4442 2 180.628 160.278 8.12547
4443 1 182.1 160.018 8.50781
4444 1 182.636 160.434 9.88729
4445 2 184.107 160.847 10.051
4446 1 184.75 160.991 11.4644
4447 1 185.338 159.767 12.2425
4448 2 186.852 159.41 12.1735
4449 1 187.302 158.059 11.5409
4450 1 187.803 157.928 10.0509
4451 2 186.84 157.808 8.81101
4438 1 181.941 164.64 7.14923
1449 1 181.047 170.214 7.86401
1450 1 182.478 169.627 7.86291
1451 2 183.014 168.796 9.0616
1452 1 183.891 169.442 10.1697
1453 1 185.422 169.285 10.1618
1454 2 186.31 170.143 11.1062
1455 1 187.853 170.305 10.8649
1456 1 188.861 169.114 11.0049
1457 2 189.489 168.73 12.3712
1458 1 190.652 167.72 12.4428
1459 1 192.143 168.17 12.6681
1462 1 192.724 167.529 9.01594
1471 1 190.827 170.959 7.71285
1460 2 193.118 168.55 11.4843
1461 1 193.517 167.556 10.3438
1463 2 193.374 167.055 7.70502
1474 1 194.378 171.384 8.03206
11902 1 24.0999 178.301 9.82476
11903 2 24.7551 176.996 10.3622
11904 1 25.9255 177.049 11.4059
11905 1 27.4438 177.307 11.0148
1446 1 180.078 173.914 7.15922
1366 1 183.186 174.992 13.702
1421 2 185.376 177.495 9.92515
1422 1 184.766 177.266 8.51127
1423 1 185.628 177.215 7.22401
1440 1 185.636 172.491 7.87415
1441 1 184.299 173.213 8.12643
1442 2 183.797 173.493 9.5834
1443 1 182.321 173.873 9.92026
1444 1 181.536 175.028 9.19079
1445 2 180.171 174.757 8.47897
1447 1 179.648 172.416 7.20213
1367 2 183.55 173.574 14.2206
1380 1 189.549 172.557 14.2404
1381 1 190.624 172.544 13.12
1382 2 190.695 173.661 12.0802
1383 1 191.986 174.511 11.9678
1384 1 192.019 176.014 12.3731
1385 2 192.331 176.488 13.8314
1417 1 187.971 177.661 13.7869
1418 2 187.722 176.451 12.8584
1419 1 186.377 176.328 12.1296
1420 1 186.278 176.432 10.6114
1434 1 189.362 178.39 8.81294
1435 1 189.965 177.175 8.09535
1436 2 189.667 175.753 8.56129
1437 1 188.928 174.797 7.62373
1438 1 187.963 173.753 8.17112
1439 2 186.848 173.209 7.266
1472 2 191.722 171.973 8.4542
1473 1 193.156 171.635 8.98129
1475 2 195.299 172.546 7.55671
11896 1 20.5524 184.898 9.71453
11897 2 20.8654 183.587 8.9435
11898 1 20.7702 182.216 9.65717
11906 2 28.0453 178.739 10.672
11893 1 22.598 184.897 12.8043
11899 1 21.7987 181.116 9.36518
11900 2 22.2748 180.169 10.4865
11901 1 22.6481 178.695 10.1872
11907 1 27.938 179.956 11.6342
11908 1 26.7399 180.934 11.527
11909 2 26.1384 181.604 12.7909
11910 1 24.801 181.125 13.4487
11911 1 24.6027 179.68 14.0423
11936 2 25.6154 184.537 9.97776
11937 1 24.9453 183.665 8.92093
11938 1 25.7698 182.691 8.0455
11920 1 33.9871 182.279 13.4638
11921 2 33.6804 183.391 12.3709
11923 1 32.2938 185.557 13.5015
11924 2 30.8351 185.714 12.9536
11926 1 29.2182 183.951 11.6086
11927 2 30.0123 183.226 10.4587
11929 1 31.4342 185.092 9.08466
11922 1 33.5009 184.948 12.6677
11925 1 29.863 184.48 12.9222
11928 1 30.3411 183.968 9.13904
1430 2 185.402 181.457 7.50912
1410 1 190.77 183.061 7.89816
1411 1 190.47 183.545 9.34113
1412 2 190.832 182.655 10.5483
1413 1 189.756 182.099 11.4947
1414 1 189.976 180.739 12.1606
1415 2 188.861 180.056 12.9506
1416 1 189.115 178.654 13.5279
1431 1 186.941 181.354 7.49135
1432 1 187.678 180.425 8.46651
1433 2 188.873 179.584 7.98812
1403 2 193.774 178.577 9.61686
1398 1 193.287 182.922 13.8234
1399 1 194.554 182.182 13.3324
1400 2 194.603 181.552 11.9272
1401 1 194.571 180.015 11.7464
1402 1 193.456 179.35 10.9123
1404 1 193.29 179.144 8.26319
11863 1 25.3669 188.696 13.6697
11894 2 21.7379 185.863 11.9394
11895 1 21.6794 185.721 10.4008
11933 2 27.7191 187.931 9.99811
11935 1 25.7654 186.051 9.80577
11947 1 25.8722 190.863 7.99901
11950 1 22.014 190.37 7.332
11934 1 26.888 186.76 10.58
11862 1 26.7012 189.487 13.5937
11864 2 24.1146 189.055 12.7961
11865 1 22.8599 189.8 13.3865
11948 2 24.4517 190.551 8.61337
11949 1 23.1435 191.209 8.04501
11930 2 31.1309 186.504 8.49936
11932 1 28.8036 187.722 8.91308
11931 1 30.2897 187.554 9.26396
11852 2 27.8666 194.247 12.7027
11853 1 27.2166 195.067 13.8318
11851 1 29.3012 193.721 12.859
10970 2 113.798 17.4412 20.8702
10972 1 115.652 17.1276 18.8858
10971 1 114.787 18.0245 19.8076
10973 2 117.193 17.1119 19.043
10974 1 117.948 15.827 19.5421
10975 1 118.076 15.3988 21.07
10978 1 121.318 16.9722 21.0706
10979 2 121.33 18.4888 20.6972
10980 1 122.637 19.3092 20.7317
10997 2 118.035 21.4781 20.4285
10998 1 116.493 21.4886 20.0643
10999 1 115.43 22.3876 20.7687
3278 2 157.722 31.2499 21.281
3279 1 157.313 32.6125 20.5863
3280 1 157.74 34.0441 21.1023
3281 2 159.18 34.6591 20.8835
6452 2 120.873 39.8176 17.5149
6453 1 120.687 41.3403 17.628
6454 1 121.185 42.1024 18.8772
6451 1 121.625 39.2178 16.3187
6494 2 128.028 39.9506 20.3182
6495 1 127.121 39.0433 19.4707
6496 1 125.656 38.7464 19.8896
6497 2 125.081 37.312 19.7049
6498 1 124.854 36.3584 20.9134
6493 1 129.009 39.3686 21.364
6465 1 130.82 42.8511 18.8113
6455 2 121.676 43.5641 18.7444
6456 1 123.165 43.954 18.9928
6457 1 124.267 43.8298 17.8818
6458 2 124.693 45.0428 17.0034
6459 1 125.882 45.9432 17.3977
6460 1 126.977 46.2936 16.3721
6461 2 128.461 46.3851 16.8216
6470 2 127.258 45.3961 21.2936
6471 1 126.801 43.9256 21.105
6462 1 129.567 45.353 16.3592
6463 1 129.494 43.7734 16.557
6464 2 129.512 43.0559 17.9565
6466 1 131.416 43.9732 19.7408
6467 2 130.872 44.2448 21.1915
6469 1 128.655 45.883 20.8149
6256 1 53.5667 128.257 14.3496
6258 1 51.3529 126.763 14.4016
6265 1 55.7854 124.838 15.1879
6195 1 57.2358 127.68 19.3191
6193 1 59.2401 127.847 21.091
6194 2 58.5504 127.131 19.9022
6266 2 57.1792 125.069 15.7845
6267 1 58.0657 126.206 15.2642
6268 1 59.5301 126.285 15.7125
6269 2 60.4871 127.398 15.2546
6289 1 63.8016 126.625 17.5778
6290 2 63.2444 125.188 17.6851
6291 1 63.0235 124.335 16.418
6292 1 61.9522 123.224 16.3805
6293 2 61.5891 122.517 15.0529
6294 1 60.1517 122.64 14.4548
6192 1 60.7789 128.034 21.1185
6278 2 67.0631 124.911 14.3924
6280 1 66.2718 127.512 14.373
6287 2 65.5548 128.489 18.3785
6288 1 65.0778 127.024 18.3448
6183 1 56.9111 132.867 20.6662
6197 2 55.9703 128.944 17.3592
6198 1 55.4619 130.377 17.2009
6199 1 53.9958 130.68 17.5214
6200 2 53.3502 131.993 17.0513
6201 1 52.5919 132.932 18.0542
6202 1 53.3412 133.864 19.0747
6203 2 53.8076 135.301 18.688
6204 1 55.2999 135.597 18.3456
6205 1 55.8626 135.41 16.9127
6178 1 61.1368 135.492 18.3422
6179 2 59.9582 134.524 18.1979
6180 1 60.0018 133.101 18.7855
6181 1 58.7238 132.236 18.7768
6182 2 57.9671 131.879 20.0802
6191 2 61.4271 129.436 20.9565
6196 1 57.2545 128.634 18.1115
6213 1 60.4804 131.252 15.4621
6214 1 61.9964 131.13 15.2751
6215 2 62.955 131.358 16.4426
6216 1 64.1565 132.284 16.2354
6217 1 64.733 133.151 17.3734
6218 2 64.7911 134.689 17.231
6219 1 66.0733 135.472 16.7776
6283 1 67.5609 130.913 15.0714
6284 2 68.2892 130.513 16.3995
6285 1 67.4762 130.256 17.7045
6286 1 67.0465 128.827 18.1312
6157 1 55.3296 138.468 21.0048
6158 2 54.5639 139.828 20.8009
6159 1 53.0813 140.094 21.3071
6206 2 56.3122 136.627 16.0672
6208 1 58.361 136.427 14.3232
6176 2 62.6502 136.499 20.3211
6177 1 61.293 136.397 19.5906
6207 1 57.8059 136.828 15.7092
6220 1 66.3132 135.937 15.2937
6221 2 65.4706 137.074 14.5995
14476 1 93.8214 142.175 15.3641
14477 2 93.8339 142.201 16.9255
14479 1 95.1673 139.855 17.5842
14480 2 94.6856 138.755 18.572
14482 1 94.1318 138.504 21.1976
14525 2 98.8207 141.046 18.3956
14478 1 94.8659 141.396 17.7862
14481 1 95.1524 138.713 20.0594
14523 1 98.8799 141.477 21.0482
14524 1 98.8957 140.501 19.843
14526 1 99.9108 140.732 17.3583
14527 1 100.734 141.887 16.7393
14528 2 102.234 142.091 17.0873
14530 1 102.679 142.264 19.7771
14531 2 103.884 142.256 20.7452
14537 2 106.692 142.373 17.4561
14538 1 106.454 140.919 16.969
14539 1 105.583 139.884 17.7815
14540 2 104.518 138.912 17.1439
14541 1 104.732 138.141 15.7922
14542 1 105.365 136.722 15.7546
14543 2 106.875 136.526 15.4141
14536 1 107.624 142.691 18.6658
14544 1 107.883 136.11 16.5232
14545 1 108.729 137.165 17.2842
14546 2 108.684 137.231 18.8269
14547 1 109.045 138.535 19.5654
14548 1 108.161 139.059 20.7224
14492 2 91.9804 145.115 20.3622
14494 1 92.5562 147.27 18.8471
14475 1 94.6405 143.183 14.5442
14495 2 93.1083 148.659 19.3325
14497 1 94.8399 149.904 17.561
14498 2 95.147 149.124 16.2292
14500 1 96.2793 146.72 15.8891
14501 2 97.5384 145.866 15.639
14503 1 99.5948 145.582 17.3425
14504 2 99.7593 146.152 18.7618
14493 1 92.9788 145.927 19.4999
14496 1 94.5326 149.178 18.9226
14499 1 96.4001 148.24 16.067
14502 1 98.2143 145.12 16.8087
14520 1 96.5164 144.04 20.9633
14518 1 96.6434 146.666 21.3541
14529 1 102.725 142.886 18.3356
14435 2 101.743 149.438 20.0404
14506 1 101.013 145.653 21.1053
14428 1 102.578 145.324 14.6783
14429 2 104.104 145.183 14.9649
14430 1 104.884 146.293 15.687
14431 1 104.95 146.348 17.2208
14432 2 104.74 147.672 17.9615
14433 1 103.509 147.854 18.8452
14434 1 102.94 149.252 19.1033
14445 1 100.179 149.275 14.9606
14446 1 101.706 149.017 15.0582
14505 1 100.063 145.231 19.9594
14532 1 104.437 143.565 21.3816
14534 2 106.734 144.688 20.4575
14535 1 107.698 144.124 19.3179
4371 1 177.546 145.701 16.0685
4372 1 177.114 146.783 15.0265
4373 2 177.456 148.286 15.2093
4374 1 176.691 149.372 14.4332
4368 1 180.287 142.9 14.7066
4369 1 178.953 143.673 14.8941
4370 2 178.843 144.835 15.9168
4475 2 178.878 149.7 19.0778
4476 1 180.006 149.111 18.1711
4477 1 180.418 147.621 18.2826
4478 2 181.603 147.151 19.1701
4479 1 183.027 147.062 18.6031
4480 1 184.083 148.092 19.0341
4481 2 185.088 148.651 18.0195
4482 1 186.558 148.224 18.0849
4483 1 187.156 147.35 16.9569
4484 2 188.679 147.259 16.718
4485 1 189.449 148.444 16.0452
4486 1 190.717 149.117 16.6847
4487 2 190.695 149.995 17.9936
14441 2 99.665 153.232 18.3776
14443 1 99.346 151.102 16.8036
14444 2 99.497 150.633 15.3446
14439 1 100.127 153.375 21.0175
14440 1 100.576 153.643 19.5528
14442 1 100.188 152.285 17.297
14448 1 104.048 150.233 14.6766
14449 1 104.192 151.735 15.0313
14450 2 104.113 152.22 16.5041
14451 1 105.386 152.617 17.2805
14452 1 105.543 154.036 17.8743
14453 2 106.562 155.044 17.2613
14454 1 106.069 156.33 16.5407
14455 1 105.78 156.338 15.0128
14456 2 104.378 156.718 14.4805
4463 2 185.218 151.792 14.6771
4467 1 185.095 155.177 16.7138
4468 1 184.231 154.859 17.9543
4469 2 182.89 154.086 17.82
4470 1 182.692 152.653 18.4343
4471 1 182.479 152.399 19.9754
4472 2 181.093 152.562 20.6881
4473 1 180.114 151.371 20.8533
4474 1 179.026 151.09 19.7625
4464 1 186.317 152.027 15.7835
4465 1 187.106 153.409 15.9214
4466 2 186.588 154.717 16.6585
4488 1 189.934 151.337 18.0921
4489 1 189.492 151.836 19.4788
4490 2 188.219 152.689 19.7002
4491 1 186.82 152.039 19.8782
4492 1 186.173 151.893 21.2698
1372 1 185.383 169.871 17.2453
1371 1 185.816 171.265 17.7797
1373 2 185.765 168.574 18.0063
1374 1 187.042 167.765 17.6325
1375 1 188.383 168.004 18.3962
1376 2 189.66 168.495 17.6538
1377 1 189.924 170.006 17.4158
1378 1 189.951 170.542 15.9811
1351 1 178.785 174.883 15.3293
1352 2 178.977 174.801 16.8488
1353 1 179.741 175.906 17.6055
1354 1 180.989 175.559 18.4433
1355 2 181.126 176.052 19.9053
1356 1 182.468 176.602 20.4377
1357 1 183.52 175.655 21.0902
1358 2 185.03 176.012 21.098
1362 1 185.495 177.46 16.7285
1363 1 183.993 177.594 16.4121
1364 2 183.469 177.353 14.9804
1365 1 182.637 176.089 14.6479
1368 1 185.008 173.21 14.6967
1369 1 185.506 173.437 16.1781
1370 2 185.042 172.537 17.3768
1359 1 185.93 175.713 19.8517
1360 1 186.724 176.836 19.0862
1361 2 186.05 177.871 18.1082
1379 2 189.879 172.056 15.6727
1390 1 191.891 175.117 18.0467
1391 2 190.889 176.329 17.8268
1392 1 190.86 177.605 18.7426
1386 1 193.776 176.621 14.3852
1387 1 194.322 175.594 15.4182
1388 2 194.391 175.938 16.9391
1389 1 193.498 175.196 18.0239
11874 1 23.1968 184.455 21.1988
11878 1 28.0071 183.916 20.7323
11885 2 26.7468 185.505 15.7093
11886 1 26.4658 184.06 16.2099
11887 1 25.673 183.774 17.5155
11888 2 24.6002 182.676 17.58
11889 1 23.0908 183.012 17.4143
11890 1 22.4107 183.011 16.0188
11891 2 21.8993 184.328 15.3711
11892 1 22.7584 185.116 14.3291
11912 2 24.9272 179.333 15.5309
11913 1 26.2795 178.657 16.0091
11914 1 27.7217 179.173 15.6417
11915 2 28.4274 180.333 16.3986
11879 2 29.2468 184.803 20.5798
11880 1 30.1551 184.659 19.348
11916 1 29.2617 181.362 15.5998
11917 1 30.7604 181.567 15.8839
11918 2 31.8168 181.26 14.7993
11919 1 33.145 182.057 14.7775
1393 1 191.752 178.851 18.4412
1394 2 191.225 180.054 17.6268
1395 1 191.947 180.474 16.3344
1396 1 191.66 181.846 15.6889
1397 2 192.822 182.791 15.2921
11860 1 27.6779 190.449 15.93
11866 1 22.1302 189.344 14.7116
11869 1 23.6595 189.852 18.2065
11872 1 23.4947 186.494 19.4615
11873 2 22.8772 185.909 20.7529
11884 1 27.5714 186.522 16.5668
11858 2 27.265 192.208 17.9484
11859 1 28.1492 191.645 16.7871
11861 2 27.0126 190.659 14.5483
11867 2 22.1218 190.239 15.9976
11868 1 23.4248 190.492 16.8275
11870 2 24.6487 188.665 18.3704
11871 1 24.5016 187.667 19.5362
11881 1 30.5165 185.895 18.5027
11882 2 30.2193 185.902 16.9892
11883 1 29.0943 186.793 16.3549
11854 1 25.8426 194.662 14.4212
11855 2 25.4754 195.047 15.8811
11856 1 25.4109 193.978 17.0093
11857 1 26.6687 193.648 17.8801
10958 2 109.642 20.0315 21.5095
10959 1 110.046 18.5177 21.5476
10957 1 110.494 21.1329 22.2303
10963 1 111.343 15.1111 24.8469
10964 2 112.109 15.2343 26.2261
11006 2 111.738 21.0264 28.2931
10956 1 110.567 21.2509 23.7929
10960 1 109.363 17.5029 22.5164
10961 2 109.941 17.242 23.9355
10962 1 109.984 15.8257 24.561
10965 1 113.019 16.4782 26.5733
11004 1 114.164 21.0107 26.9159
11005 1 113.31 21.1474 28.2198
11007 1 110.938 19.7836 27.7698
10969 1 114.261 16.7693 22.2094
10966 1 114.363 16.7768 25.8375
10967 2 114.409 17.8302 24.6963
10968 1 115.043 17.5333 23.3251
10976 2 118.852 16.2333 22.1711
10977 1 120.43 16.3814 22.2357
10993 1 118.728 20.7021 25.5399
10994 2 119.127 20.0714 24.1566
10995 1 118.284 20.2583 22.8786
10996 1 118.613 21.4137 21.8888
10981 1 123.01 20.1778 21.9583
10982 2 124.172 19.7422 22.8881
10983 1 123.925 19.4994 24.3848
10984 1 123.504 18.0987 24.9438
10985 2 122.339 17.9575 25.9754
10986 1 122.497 18.4582 27.4534
10987 1 121.847 19.7843 27.9281
10988 2 122.633 21.1435 27.947
10952 2 106.159 22.6955 23.9574
10951 1 106.074 22.8399 22.4272
10953 1 107.142 21.6734 24.5923
10955 2 109.826 22.382 24.5564
10954 1 108.471 22.1183 25.321
11001 1 114.245 22.4034 23.166
11003 2 114.17 22.0697 25.7904
11044 1 112.651 27.1631 25.319
11045 2 112.721 26.6932 23.8092
11046 1 114.005 26.9613 22.9206
10991 2 120.043 23.2382 25.7653
10992 1 118.777 22.2593 25.8701
11000 2 114.443 21.7672 21.7845
11002 1 114.781 21.7396 24.4328
11035 1 121.272 27.3167 28.5054
11036 2 120.914 27.6734 27.0305
11037 1 119.457 27.7505 26.5119
11047 1 115.269 26.0372 22.9365
11048 2 116.425 26.2076 23.9717
11049 1 116.475 25.3188 25.234
11050 1 116.099 25.8872 26.6222
11051 2 115.898 25.0138 27.8822
10989 1 121.931 22.4908 27.6007
10990 1 121.517 22.8491 26.1379
3272 2 159.495 28.2005 28.213
11042 2 113.674 29.7295 25.7517
11043 1 112.498 28.6733 25.7755
6510 1 121.069 32.984 26.587
6511 1 120.424 32.3121 27.833
6513 1 118.148 33.8607 28.1699
6527 2 118.799 35.4296 23.2731
6528 1 118.893 33.8856 23.1101
6529 1 120.181 33.2303 22.5372
6530 2 120.253 31.7084 22.2689
6531 1 120.967 30.7487 23.2517
11038 1 118.763 29.109 26.2447
11039 2 117.503 29.529 27.0386
11040 1 116.271 30.0842 26.3032
11041 1 114.849 29.7023 26.7586
6541 1 128.013 31.3148 24.5271
6499 1 126.026 35.533 21.5291
6500 2 126.124 35.3606 23.062
6507 1 123.47 35.2341 28.1174
6508 1 123.221 34.6154 26.7012
6509 2 122.58 33.2261 26.5027
6532 1 122.426 30.3049 23.0178
6533 2 123.098 29.3071 23.9713
6534 1 124.306 29.743 24.8171
6535 1 124.585 29.132 26.2155
6536 2 124.558 30.0124 27.4965
6537 1 125.846 30.6923 28.0333
6538 1 126.24 32.2028 27.7795
6539 2 126.7 32.7928 26.3897
6540 1 128.005 32.3938 25.6589
6542 2 127.913 31.7015 23.0109
6544 1 130.432 32.7764 22.4455
6571 1 130.427 28.7364 27.0004
6574 1 131.909 32.1001 26.1843
6577 1 135.189 33.5116 27.9572
6543 1 129.16 31.9357 22.0638
6545 2 130.477 34.3219 22.3559
6546 1 131.655 35.0752 22.9823
6564 1 129.058 35.5428 28.233
6570 1 129.431 29.526 27.9158
6572 2 131.821 29.2987 26.5117
6573 1 132.004 30.6137 25.6313
6575 2 132.735 32.6256 27.386
6576 1 133.827 33.6882 27.2278
3293 2 152.558 31.4914 22.849
3296 2 150.48 33.1939 25.3941
3261 1 151.898 29.7422 28.3371
3262 1 153.111 28.8356 27.9757
3263 2 154.45 29.4462 27.4505
3264 1 155.698 29.4674 28.3695
3287 2 156.206 34.6059 26.1405
3288 1 154.915 34.5266 25.2986
3289 1 154.728 35.3574 23.9853
3290 2 153.509 35.1062 23.0463
3291 1 153.46 33.9535 21.9527
3292 1 153.674 32.4154 22.2762
3294 1 152.33 31.4005 24.391
3295 1 150.947 31.7367 25.0514
3297 1 151.072 33.9897 26.5739
3298 1 150.828 35.502 26.686
3231 1 163.417 32.1879 27.257
3232 1 164.245 33.5187 27.0589
3233 2 163.615 34.8068 26.4627
3273 1 160 28.9061 26.9132
3274 1 159.212 30.0896 26.2659
3275 2 158.213 29.8607 25.0897
3276 1 158.526 30.3589 23.6694
3277 1 157.41 30.9143 22.7666
3282 1 160.396 34.2658 21.8188
3283 1 160.558 34.8075 23.2797
3284 2 159.896 34.0906 24.4896
3285 1 158.669 34.7347 25.152
3286 1 157.505 33.8952 25.6956
3230 2 162.49 31.9267 28.5018
3166 1 167.073 35.4524 24.092
5702 2 113.524 39.7107 23.7667
5703 1 113.808 40.6021 25.003
5704 1 112.828 40.6732 26.1988
5705 2 113.181 40.0129 27.5506
6515 2 116.936 36.2562 28.0141
6516 1 117.204 37.7742 28.0459
6517 1 116.921 38.6539 26.8159
6518 2 117.891 39.7966 26.4291
6519 1 117.728 40.6426 25.1259
6520 1 118.142 40.1043 23.7109
6521 2 119.503 40.4906 23.0389
6522 1 120.707 39.4833 22.947
6524 2 121.147 37.9543 25.2465
6525 1 120.701 36.5341 24.8232
6526 1 119.22 36.1389 24.5888
5701 1 114.388 38.4682 23.4826
6473 2 125.959 42.2059 22.9592
6474 1 124.949 41.8483 24.0344
6475 1 125.149 42.2932 25.5067
6476 2 124.092 41.9493 26.5877
6478 1 121.521 42.5753 26.0297
6501 1 127.015 36.2979 23.9631
6502 1 126.607 37.7699 24.3511
6503 2 125.393 38.1072 25.2582
6504 1 125.547 38.2561 26.7859
6505 1 124.494 37.7227 27.7771
6506 2 124.596 36.2776 28.3641
6523 1 121.592 39.0485 24.1945
6477 1 122.847 42.8349 26.8154
6489 1 129.219 42.1794 25.5581
6490 1 130.215 41.4227 24.6527
6491 2 129.74 40.2468 23.7891
6492 1 129.842 40.3107 22.2504
6547 1 131.424 36.3066 23.8738
6548 2 132.61 37.211 24.2773
6549 1 133.174 37.1568 25.7106
6550 1 133.824 38.3865 26.3912
6551 2 133.321 38.9105 27.771
6562 1 129.12 38.2085 27.6669
6563 2 129.672 36.7561 27.5112
3299 2 151.831 36.4058 27.4195
3300 1 152.299 37.714 26.7693
3234 1 162.995 35.8747 27.3933
3235 1 161.462 36.0476 27.5035
3161 2 163.685 39.0596 24.5308
3162 1 163.88 37.7357 23.7372
3186 1 161.678 41.2076 28.085
3187 1 160.54 41.5458 27.1052
3157 1 165.619 41.9947 28.3423
3160 1 164.57 39.3669 25.7575
3163 1 164.706 37.6477 22.4005
3169 1 167.58 36.588 27.683
3158 2 166.045 41.1021 27.1606
3159 1 165.074 40.7994 26.0075
3164 2 166.279 37.4815 22.3766
3165 1 167.019 36.1146 22.6626
3167 2 168.138 35.831 25.1673
3168 1 167.841 36.9335 26.2107
5730 1 113.874 45.5168 28.2049
6479 2 120.9 43.6408 25.0724
5731 1 114.683 44.517 27.3183
5732 2 116.071 43.9911 27.7629
5773 1 120.6 45.8979 28.3477
5774 2 119.434 46.7508 27.8012
5775 1 119.146 48.1608 28.3992
5776 1 119.779 49.455 27.8029
6472 1 125.676 43.3383 21.9633
6480 1 121.592 44.0309 23.7107
6481 1 121.834 45.521 23.2605
6482 2 122.736 46.5492 24.048
6483 1 124.274 46.5222 23.9639
6484 1 125.124 46.3831 25.2399
6485 2 126.64 46.6691 25.1846
6486 1 127.655 45.7518 25.8894
6487 1 128.487 44.7241 25.1027
6468 1 130.013 45.5229 21.5427
6488 2 129.382 43.6939 25.8186
3188 2 159.922 42.9743 27.0872
3189 1 158.708 43.3827 28.0092
5777 2 121.097 50.0451 28.3823
70 1 82.753 78.4813 27.1101
71 2 84.2992 78.5166 27.2736
72 1 85.0843 77.3141 27.8628
86 2 78.7702 74.7508 28.5018
87 1 80.1469 75.238 27.8882
88 1 81.5913 75.0296 28.5434
68 2 80.4304 79.4277 28.1333
69 1 81.8638 79.6618 27.586
12603 1 149.493 79.5243 27.0955
12604 1 148.207 80.376 27.0598
12605 2 148.036 81.5841 28.0302
12606 1 147.928 83.0735 27.5348
12607 1 149.025 83.7838 26.6519
12698 2 144.066 84.0366 28.4368
12699 1 144.19 85.5764 28.2018
12601 1 151.982 79.3825 26.1505
12602 2 150.474 79.495 25.9053
12608 2 150.293 84.4522 27.2609
12609 1 151.608 83.6225 27.413
12701 2 142.611 87.4971 27.0943
12702 1 141.083 87.376 27.3965
12700 1 143.507 86.2338 26.9615
6151 1 53.1433 133.9 23.893
6152 2 53.5061 135.308 23.4036
6184 1 57.1345 133.693 21.9759
6170 2 61.0496 135.288 27.1588
6175 1 62.895 135.708 21.6255
6185 2 58.3957 134.629 22.2338
6186 1 59.3684 134.414 23.441